--------------------------------------------------------------------------
WARNING: Linux kernel CMA support was requested via the
btl_vader_single_copy_mechanism MCA variable, but CMA support is
not available due to restrictive ptrace settings.

The vader shared memory BTL will fall back on another single-copy
mechanism if one is available. This may result in lower performance.

  Local host: Rijuki
--------------------------------------------------------------------------

     Program PHONON v.6.0 (svn rev. 13079) starts on 29Jun2020 at 11:53:35 

     This program is part of the open-source Quantum ESPRESSO suite
     for quantum simulation of materials; please cite
         "P. Giannozzi et al., J. Phys.:Condens. Matter 21 395502 (2009);
          URL http://www.quantum-espresso.org", 
     in publications or presentations arising from this work. More details at
     http://www.quantum-espresso.org/quote

     Parallel version (MPI), running on    15 processors
     R & G space division:  proc/nbgrp/npool/nimage =      15

     Reading data from directory:
     ./tmp/Cu2N.save

   Info: using nr1, nr2, nr3 values from input

   Info: using nr1, nr2, nr3 values from input

     IMPORTANT: XC functional enforced from input :
     Exchange-correlation      =  SLA  PW   PBX  PBC ( 1  4  3  4 0 0)
     Any further DFT definition will be discarded
     Please, verify this is what you really want

               file Cu.pbe-dn-kjpaw_psl.1.0.0.UPF: wavefunction(s)  4S 3D renormalized
               file N.pbe-n-kjpaw_psl.1.0.0.UPF: wavefunction(s)  2S renormalized

     Parallelization info
     --------------------
     sticks:   dense  smooth     PW     G-vecs:    dense   smooth      PW
     Min          32      32      9                  512      512      86
     Max          33      33     11                  514      514      90
     Sum         481     481    145                 7689     7689    1309

     Generating pointlists ...
     new r_m :   0.1969 (alat units)  1.3792 (a.u.) for type    1
     new r_m :   0.1969 (alat units)  1.3792 (a.u.) for type    2

     Check: negative/imaginary core charge=   -0.000075    0.000000


     Dynamical matrices for ( 2, 2, 2)  uniform grid of q-points
     (   8q-points):
       N         xq(1)         xq(2)         xq(3) 
       1   0.000000000   0.000000000   0.000000000
       2   0.000000000   0.000000000  -0.500000000
       3   0.000000000  -0.500062172   0.000000000
       4   0.000000000  -0.500062172  -0.500000000
       5  -0.500000000   0.000000000   0.000000000
       6  -0.500000000   0.000000000  -0.500000000
       7  -0.500000000  -0.500062172   0.000000000
       8  -0.500000000  -0.500062172  -0.500000000

     Calculation of q =    0.0000000   0.0000000   0.0000000

                                                                                

     bravais-lattice index     =            0
     lattice parameter (alat)  =       7.0055  a.u.
     unit-cell volume          =     343.7659 (a.u.)^3
     number of atoms/cell      =            5
     number of atomic types    =            2
     kinetic-energy cut-off    =      30.0000  Ry
     charge density cut-off    =     120.0000  Ry
     convergence threshold     =      1.0E-14
     beta                      =       0.7000
     number of iterations used =            4
     Exchange-correlation      =  SLA  PW   PBX  PBC ( 1  4  3  4 0 0)


     celldm(1)=    7.00550  celldm(2)=    0.00000  celldm(3)=    0.00000
     celldm(4)=    0.00000  celldm(5)=    0.00000  celldm(6)=    0.00000

     crystal axes: (cart. coord. in units of alat)
               a(1) = (  1.0000  0.0000  0.0000 )  
               a(2) = (  0.0000  0.9999  0.0000 )  
               a(3) = (  0.0000  0.0000  1.0000 )  

     reciprocal axes: (cart. coord. in units 2 pi/alat)
               b(1) = (  1.0000  0.0000  0.0000 )  
               b(2) = (  0.0000  1.0001  0.0000 )  
               b(3) = (  0.0000  0.0000  1.0000 )  


     Atoms inside the unit cell: 

     Cartesian axes

     site n.  atom      mass           positions (alat units)
        1     Cu  63.5460   tau(    1) = (    0.00000    0.00000    0.00000  )
        2     Cu  63.5460   tau(    2) = (    0.50000    0.49994    0.00000  )
        3     Cu  63.5460   tau(    3) = (    0.00000    0.49994    0.47492  )
        4     Cu  63.5460   tau(    4) = (    0.50000    0.00000    0.47479  )
        5     N   14.0070   tau(    5) = (    0.00000    0.49994    0.99764  )

     Computing dynamical matrix for 
                    q = (   0.0000000   0.0000000   0.0000000 )

      5 Sym.Ops. (with q -> -q+G )


     G cutoff =  149.1761  (    514 G-vectors)     FFT grid: ( 25, 25, 25)

     number of k points=    16  gaussian smearing, width (Ry)=  0.0200

     PseudoPot. # 1 for Cu read from file:
     ../../pseudo/Cu.pbe-dn-kjpaw_psl.1.0.0.UPF
     MD5 check sum: cfffd1f38ee05704b3e17f46f1730a6f
     Pseudo is Projector augmented-wave + core cor, Zval = 11.0
     Generated using "atomic" code by A. Dal Corso  v.6.3
     Shape of augmentation charge: PSQ
     Using radial grid of 1199 points,  6 beta functions with: 
                l(1) =   0
                l(2) =   0
                l(3) =   1
                l(4) =   1
                l(5) =   2
                l(6) =   2
     Q(r) pseudized with 0 coefficients 


     PseudoPot. # 2 for  N read from file:
     ../../pseudo/N.pbe-n-kjpaw_psl.1.0.0.UPF
     MD5 check sum: 14c48229446f9f2d411169a3abcbc3fa
     Pseudo is Projector augmented-wave + core cor, Zval =  5.0
     Generated using "atomic" code by A. Dal Corso  v.6.3
     Shape of augmentation charge: PSQ
     Using radial grid of 1085 points,  4 beta functions with: 
                l(1) =   0
                l(2) =   0
                l(3) =   1
                l(4) =   1
     Q(r) pseudized with 0 coefficients 


     Mode symmetry, C_2v (mm2)  point group:


     Atomic displacements:
     There are  15 irreducible representations

     Representation     1      1 modes -A_1  D_1  S_1  To be done

     Representation     2      1 modes -A_1  D_1  S_1  To be done

     Representation     3      1 modes -A_1  D_1  S_1  To be done

     Representation     4      1 modes -A_1  D_1  S_1  To be done

     Representation     5      1 modes -A_1  D_1  S_1  To be done

     Representation     6      1 modes -B_1  D_3  S_3  To be done

     Representation     7      1 modes -B_1  D_3  S_3  To be done

     Representation     8      1 modes -B_1  D_3  S_3  To be done

     Representation     9      1 modes -B_1  D_3  S_3  To be done

     Representation    10      1 modes -B_1  D_3  S_3  To be done

     Representation    11      1 modes -B_2  D_4  S_4  To be done

     Representation    12      1 modes -B_2  D_4  S_4  To be done

     Representation    13      1 modes -B_2  D_4  S_4  To be done

     Representation    14      1 modes -B_2  D_4  S_4  To be done

     Representation    15      1 modes -B_2  D_4  S_4  To be done



     Alpha used in Ewald sum =   1.1000
     PHONON       :     5.81s CPU        17.60s WALL



     Representation #  1 mode #   1

     Self-consistent Calculation

     Pert. #  1: Fermi energy shift (Ry) =    -8.4816E-04     0.0000E+00

      iter #   1 total cpu time :    38.1 secs   av.it.:   8.1
      thresh= 1.000E-02 alpha_mix =  0.700 |ddv_scf|^2 =  2.832E-05

     Pert. #  1: Fermi energy shift (Ry) =     4.3482E-02     0.0000E+00

      iter #   2 total cpu time :    58.8 secs   av.it.:  13.4
      thresh= 5.322E-04 alpha_mix =  0.700 |ddv_scf|^2 =  6.094E-06

     Pert. #  1: Fermi energy shift (Ry) =    -5.3275E-02     0.0000E+00

      iter #   3 total cpu time :    78.2 secs   av.it.:  13.6
      thresh= 2.469E-04 alpha_mix =  0.700 |ddv_scf|^2 =  2.443E-06

     Pert. #  1: Fermi energy shift (Ry) =     1.7863E-02     0.0000E+00

      iter #   4 total cpu time :   100.1 secs   av.it.:  13.9
      thresh= 1.563E-04 alpha_mix =  0.700 |ddv_scf|^2 =  1.512E-06

     Pert. #  1: Fermi energy shift (Ry) =     2.7422E-02     0.0000E+00

      iter #   5 total cpu time :   119.6 secs   av.it.:  13.4
      thresh= 1.230E-04 alpha_mix =  0.700 |ddv_scf|^2 =  3.304E-08

     Pert. #  1: Fermi energy shift (Ry) =    -5.3404E-03     0.0000E+00

      iter #   6 total cpu time :   142.5 secs   av.it.:  13.8
      thresh= 1.818E-05 alpha_mix =  0.700 |ddv_scf|^2 =  1.239E-08

     Pert. #  1: Fermi energy shift (Ry) =    -6.9345E-03     0.0000E+00

      iter #   7 total cpu time :   162.5 secs   av.it.:  13.4
      thresh= 1.113E-05 alpha_mix =  0.700 |ddv_scf|^2 =  6.076E-09

     Pert. #  1: Fermi energy shift (Ry) =     1.3380E-03     0.0000E+00

      iter #   8 total cpu time :   187.5 secs   av.it.:  13.4
      thresh= 7.795E-06 alpha_mix =  0.700 |ddv_scf|^2 =  2.017E-10

     Pert. #  1: Fermi energy shift (Ry) =     1.5057E-03     0.0000E+00

      iter #   9 total cpu time :   210.0 secs   av.it.:  13.5
      thresh= 1.420E-06 alpha_mix =  0.700 |ddv_scf|^2 =  5.144E-11

     Pert. #  1: Fermi energy shift (Ry) =     9.7387E-04     0.0000E+00

      iter #  10 total cpu time :   230.8 secs   av.it.:  13.4
      thresh= 7.172E-07 alpha_mix =  0.700 |ddv_scf|^2 =  1.606E-11

     Pert. #  1: Fermi energy shift (Ry) =     6.7380E-04     0.0000E+00

      iter #  11 total cpu time :   253.5 secs   av.it.:  14.2
      thresh= 4.007E-07 alpha_mix =  0.700 |ddv_scf|^2 =  1.829E-11

     Pert. #  1: Fermi energy shift (Ry) =     1.1122E-03     0.0000E+00

      iter #  12 total cpu time :   274.6 secs   av.it.:  13.4
      thresh= 4.276E-07 alpha_mix =  0.700 |ddv_scf|^2 =  2.001E-12

     Pert. #  1: Fermi energy shift (Ry) =     9.5242E-04     0.0000E+00

      iter #  13 total cpu time :   295.5 secs   av.it.:  13.6
      thresh= 1.415E-07 alpha_mix =  0.700 |ddv_scf|^2 =  4.272E-13

     Pert. #  1: Fermi energy shift (Ry) =     8.8495E-04     0.0000E+00

      iter #  14 total cpu time :   315.0 secs   av.it.:  14.0
      thresh= 6.536E-08 alpha_mix =  0.700 |ddv_scf|^2 =  2.248E-13

     Pert. #  1: Fermi energy shift (Ry) =     9.2414E-04     0.0000E+00

      iter #  15 total cpu time :   333.8 secs   av.it.:  13.4
      thresh= 4.742E-08 alpha_mix =  0.700 |ddv_scf|^2 =  3.008E-14

     Pert. #  1: Fermi energy shift (Ry) =     9.3607E-04     0.0000E+00

      iter #  16 total cpu time :   353.9 secs   av.it.:  13.4
      thresh= 1.734E-08 alpha_mix =  0.700 |ddv_scf|^2 =  2.221E-15

     End of self-consistent calculation

     Convergence has been achieved 


     Representation #  2 mode #   2

     Self-consistent Calculation

     Pert. #  1: Fermi energy shift (Ry) =     3.4460E-03     0.0000E+00

      iter #   1 total cpu time :   373.3 secs   av.it.:   8.9
      thresh= 1.000E-02 alpha_mix =  0.700 |ddv_scf|^2 =  2.688E-05

     Pert. #  1: Fermi energy shift (Ry) =    -6.9836E-03     0.0000E+00

      iter #   2 total cpu time :   394.3 secs   av.it.:  13.6
      thresh= 5.185E-04 alpha_mix =  0.700 |ddv_scf|^2 =  5.443E-06

     Pert. #  1: Fermi energy shift (Ry) =    -5.6226E-03     0.0000E+00

      iter #   3 total cpu time :   414.0 secs   av.it.:  13.9
      thresh= 2.333E-04 alpha_mix =  0.700 |ddv_scf|^2 =  2.673E-06

     Pert. #  1: Fermi energy shift (Ry) =     2.1737E-02     0.0000E+00

      iter #   4 total cpu time :   434.4 secs   av.it.:  13.9
      thresh= 1.635E-04 alpha_mix =  0.700 |ddv_scf|^2 =  1.363E-06

     Pert. #  1: Fermi energy shift (Ry) =    -1.3666E-02     0.0000E+00

      iter #   5 total cpu time :   455.5 secs   av.it.:  13.4
      thresh= 1.167E-04 alpha_mix =  0.700 |ddv_scf|^2 =  6.821E-08

     Pert. #  1: Fermi energy shift (Ry) =    -2.7363E-03     0.0000E+00

      iter #   6 total cpu time :   475.8 secs   av.it.:  13.5
      thresh= 2.612E-05 alpha_mix =  0.700 |ddv_scf|^2 =  8.360E-09

     Pert. #  1: Fermi energy shift (Ry) =     1.3166E-02     0.0000E+00

      iter #   7 total cpu time :   493.7 secs   av.it.:  14.2
      thresh= 9.143E-06 alpha_mix =  0.700 |ddv_scf|^2 =  7.781E-09

     Pert. #  1: Fermi energy shift (Ry) =     1.0753E-03     0.0000E+00

      iter #   8 total cpu time :   515.2 secs   av.it.:  13.6
      thresh= 8.821E-06 alpha_mix =  0.700 |ddv_scf|^2 =  7.481E-11

     Pert. #  1: Fermi energy shift (Ry) =     2.8183E-04     0.0000E+00

      iter #   9 total cpu time :   534.0 secs   av.it.:  14.4
      thresh= 8.649E-07 alpha_mix =  0.700 |ddv_scf|^2 =  6.176E-11

     Pert. #  1: Fermi energy shift (Ry) =     1.1581E-03     0.0000E+00

      iter #  10 total cpu time :   553.7 secs   av.it.:  13.6
      thresh= 7.859E-07 alpha_mix =  0.700 |ddv_scf|^2 =  2.382E-12

     Pert. #  1: Fermi energy shift (Ry) =     9.4414E-04     0.0000E+00

      iter #  11 total cpu time :   574.1 secs   av.it.:  15.2
      thresh= 1.543E-07 alpha_mix =  0.700 |ddv_scf|^2 =  1.044E-11

     Pert. #  1: Fermi energy shift (Ry) =     1.0050E-03     0.0000E+00

      iter #  12 total cpu time :   593.5 secs   av.it.:  13.9
      thresh= 3.231E-07 alpha_mix =  0.700 |ddv_scf|^2 =  1.343E-12

     Pert. #  1: Fermi energy shift (Ry) =     1.0475E-03     0.0000E+00

      iter #  13 total cpu time :   615.0 secs   av.it.:  13.9
      thresh= 1.159E-07 alpha_mix =  0.700 |ddv_scf|^2 =  1.227E-13

     Pert. #  1: Fermi energy shift (Ry) =     1.0477E-03     0.0000E+00

      iter #  14 total cpu time :   637.2 secs   av.it.:  14.1
      thresh= 3.503E-08 alpha_mix =  0.700 |ddv_scf|^2 =  4.511E-14

     Pert. #  1: Fermi energy shift (Ry) =     1.0475E-03     0.0000E+00

      iter #  15 total cpu time :   660.4 secs   av.it.:  13.6
      thresh= 2.124E-08 alpha_mix =  0.700 |ddv_scf|^2 =  3.939E-15

     End of self-consistent calculation

     Convergence has been achieved 


     Representation #  3 mode #   3

     Self-consistent Calculation

     Pert. #  1: Fermi energy shift (Ry) =    -4.9602E-02     0.0000E+00

      iter #   1 total cpu time :   679.7 secs   av.it.:   8.4
      thresh= 1.000E-02 alpha_mix =  0.700 |ddv_scf|^2 =  2.908E-05

     Pert. #  1: Fermi energy shift (Ry) =     9.9132E-02     0.0000E+00

      iter #   2 total cpu time :   702.2 secs   av.it.:  13.4
      thresh= 5.393E-04 alpha_mix =  0.700 |ddv_scf|^2 =  7.701E-06

     Pert. #  1: Fermi energy shift (Ry) =    -7.2893E-02     0.0000E+00

      iter #   3 total cpu time :   714.5 secs   av.it.:  14.2
      thresh= 2.775E-04 alpha_mix =  0.700 |ddv_scf|^2 =  6.638E-06

     Pert. #  1: Fermi energy shift (Ry) =    -4.3897E-03     0.0000E+00

      iter #   4 total cpu time :   729.7 secs   av.it.:  13.4
      thresh= 2.576E-04 alpha_mix =  0.700 |ddv_scf|^2 =  9.709E-07

     Pert. #  1: Fermi energy shift (Ry) =     2.0749E-02     0.0000E+00

      iter #   5 total cpu time :   744.5 secs   av.it.:  13.5
      thresh= 9.854E-05 alpha_mix =  0.700 |ddv_scf|^2 =  2.057E-07

     Pert. #  1: Fermi energy shift (Ry) =     7.8349E-03     0.0000E+00

      iter #   6 total cpu time :   760.0 secs   av.it.:  13.4
      thresh= 4.535E-05 alpha_mix =  0.700 |ddv_scf|^2 =  2.544E-08

     Pert. #  1: Fermi energy shift (Ry) =     4.3119E-03     0.0000E+00

      iter #   7 total cpu time :   775.3 secs   av.it.:  13.4
      thresh= 1.595E-05 alpha_mix =  0.700 |ddv_scf|^2 =  1.015E-08

     Pert. #  1: Fermi energy shift (Ry) =    -1.2884E-03     0.0000E+00

      iter #   8 total cpu time :   790.5 secs   av.it.:  13.4
      thresh= 1.007E-05 alpha_mix =  0.700 |ddv_scf|^2 =  8.044E-10

     Pert. #  1: Fermi energy shift (Ry) =     5.4516E-03     0.0000E+00

      iter #   9 total cpu time :   809.0 secs   av.it.:  13.5
      thresh= 2.836E-06 alpha_mix =  0.700 |ddv_scf|^2 =  8.673E-11

     Pert. #  1: Fermi energy shift (Ry) =     3.6615E-03     0.0000E+00

      iter #  10 total cpu time :   826.9 secs   av.it.:  14.4
      thresh= 9.313E-07 alpha_mix =  0.700 |ddv_scf|^2 =  1.780E-10

     Pert. #  1: Fermi energy shift (Ry) =     3.6746E-03     0.0000E+00

      iter #  11 total cpu time :   845.1 secs   av.it.:  13.4
      thresh= 1.334E-06 alpha_mix =  0.700 |ddv_scf|^2 =  1.265E-11

     Pert. #  1: Fermi energy shift (Ry) =     3.9139E-03     0.0000E+00

      iter #  12 total cpu time :   861.8 secs   av.it.:  13.6
      thresh= 3.557E-07 alpha_mix =  0.700 |ddv_scf|^2 =  4.037E-12

     Pert. #  1: Fermi energy shift (Ry) =     3.8376E-03     0.0000E+00

      iter #  13 total cpu time :   877.9 secs   av.it.:  13.8
      thresh= 2.009E-07 alpha_mix =  0.700 |ddv_scf|^2 =  5.977E-12

     Pert. #  1: Fermi energy shift (Ry) =     3.8916E-03     0.0000E+00

      iter #  14 total cpu time :   895.7 secs   av.it.:  13.4
      thresh= 2.445E-07 alpha_mix =  0.700 |ddv_scf|^2 =  2.190E-13

     Pert. #  1: Fermi energy shift (Ry) =     3.7680E-03     0.0000E+00

      iter #  15 total cpu time :   912.9 secs   av.it.:  13.7
      thresh= 4.680E-08 alpha_mix =  0.700 |ddv_scf|^2 =  1.401E-13

     Pert. #  1: Fermi energy shift (Ry) =     3.8463E-03     0.0000E+00

      iter #  16 total cpu time :   931.5 secs   av.it.:  13.6
      thresh= 3.743E-08 alpha_mix =  0.700 |ddv_scf|^2 =  2.833E-14

     Pert. #  1: Fermi energy shift (Ry) =     3.8399E-03     0.0000E+00

      iter #  17 total cpu time :   948.6 secs   av.it.:  14.0
      thresh= 1.683E-08 alpha_mix =  0.700 |ddv_scf|^2 =  2.030E-14

     Pert. #  1: Fermi energy shift (Ry) =     3.8336E-03     0.0000E+00

      iter #  18 total cpu time :   967.4 secs   av.it.:  13.4
      thresh= 1.425E-08 alpha_mix =  0.700 |ddv_scf|^2 =  2.179E-15

     End of self-consistent calculation

     Convergence has been achieved 


     Representation #  4 mode #   4

     Self-consistent Calculation

     Pert. #  1: Fermi energy shift (Ry) =     3.4243E-03     0.0000E+00

      iter #   1 total cpu time :   984.2 secs   av.it.:   8.9
      thresh= 1.000E-02 alpha_mix =  0.700 |ddv_scf|^2 =  2.688E-05

     Pert. #  1: Fermi energy shift (Ry) =    -7.0088E-03     0.0000E+00

      iter #   2 total cpu time :  1002.0 secs   av.it.:  13.6
      thresh= 5.185E-04 alpha_mix =  0.700 |ddv_scf|^2 =  5.442E-06

     Pert. #  1: Fermi energy shift (Ry) =    -5.5004E-03     0.0000E+00

      iter #   3 total cpu time :  1020.9 secs   av.it.:  13.9
      thresh= 2.333E-04 alpha_mix =  0.700 |ddv_scf|^2 =  2.667E-06

     Pert. #  1: Fermi energy shift (Ry) =     2.1729E-02     0.0000E+00

      iter #   4 total cpu time :  1039.4 secs   av.it.:  13.9
      thresh= 1.633E-04 alpha_mix =  0.700 |ddv_scf|^2 =  1.365E-06

     Pert. #  1: Fermi energy shift (Ry) =    -1.3654E-02     0.0000E+00

      iter #   5 total cpu time :  1058.1 secs   av.it.:  13.4
      thresh= 1.168E-04 alpha_mix =  0.700 |ddv_scf|^2 =  6.805E-08

     Pert. #  1: Fermi energy shift (Ry) =    -2.7017E-03     0.0000E+00

      iter #   6 total cpu time :  1075.9 secs   av.it.:  13.5
      thresh= 2.609E-05 alpha_mix =  0.700 |ddv_scf|^2 =  8.354E-09

     Pert. #  1: Fermi energy shift (Ry) =     1.3189E-02     0.0000E+00

      iter #   7 total cpu time :  1093.6 secs   av.it.:  14.2
      thresh= 9.140E-06 alpha_mix =  0.700 |ddv_scf|^2 =  7.782E-09

     Pert. #  1: Fermi energy shift (Ry) =     1.1010E-03     0.0000E+00

      iter #   8 total cpu time :  1109.7 secs   av.it.:  13.5
      thresh= 8.822E-06 alpha_mix =  0.700 |ddv_scf|^2 =  7.488E-11

     Pert. #  1: Fermi energy shift (Ry) =     3.0694E-04     0.0000E+00

      iter #   9 total cpu time :  1127.0 secs   av.it.:  14.4
      thresh= 8.653E-07 alpha_mix =  0.700 |ddv_scf|^2 =  6.169E-11

     Pert. #  1: Fermi energy shift (Ry) =     1.1846E-03     0.0000E+00

      iter #  10 total cpu time :  1143.7 secs   av.it.:  13.6
      thresh= 7.854E-07 alpha_mix =  0.700 |ddv_scf|^2 =  2.115E-12

     Pert. #  1: Fermi energy shift (Ry) =     9.6029E-04     0.0000E+00

      iter #  11 total cpu time :  1161.3 secs   av.it.:  15.2
      thresh= 1.454E-07 alpha_mix =  0.700 |ddv_scf|^2 =  8.422E-12

     Pert. #  1: Fermi energy shift (Ry) =     1.0377E-03     0.0000E+00

      iter #  12 total cpu time :  1179.5 secs   av.it.:  13.8
      thresh= 2.902E-07 alpha_mix =  0.700 |ddv_scf|^2 =  1.196E-12

     Pert. #  1: Fermi energy shift (Ry) =     1.0734E-03     0.0000E+00

      iter #  13 total cpu time :  1198.5 secs   av.it.:  13.9
      thresh= 1.094E-07 alpha_mix =  0.700 |ddv_scf|^2 =  1.284E-13

     Pert. #  1: Fermi energy shift (Ry) =     1.0734E-03     0.0000E+00

      iter #  14 total cpu time :  1216.7 secs   av.it.:  14.1
      thresh= 3.583E-08 alpha_mix =  0.700 |ddv_scf|^2 =  5.006E-14

     Pert. #  1: Fermi energy shift (Ry) =     1.0733E-03     0.0000E+00

      iter #  15 total cpu time :  1232.7 secs   av.it.:  13.8
      thresh= 2.237E-08 alpha_mix =  0.700 |ddv_scf|^2 =  3.864E-15

     End of self-consistent calculation

     Convergence has been achieved 


     Representation #  5 mode #   5

     Self-consistent Calculation

     Pert. #  1: Fermi energy shift (Ry) =     5.4128E-03     0.0000E+00

      iter #   1 total cpu time :  1247.6 secs   av.it.:   7.4
      thresh= 1.000E-02 alpha_mix =  0.700 |ddv_scf|^2 =  5.721E-06

     Pert. #  1: Fermi energy shift (Ry) =    -4.2571E-02     0.0000E+00

      iter #   2 total cpu time :  1263.7 secs   av.it.:  13.5
      thresh= 2.392E-04 alpha_mix =  0.700 |ddv_scf|^2 =  1.944E-06

     Pert. #  1: Fermi energy shift (Ry) =     2.9173E-02     0.0000E+00

      iter #   3 total cpu time :  1280.0 secs   av.it.:  13.9
      thresh= 1.394E-04 alpha_mix =  0.700 |ddv_scf|^2 =  2.413E-06

     Pert. #  1: Fermi energy shift (Ry) =     3.8711E-03     0.0000E+00

      iter #   4 total cpu time :  1297.2 secs   av.it.:  13.1
      thresh= 1.553E-04 alpha_mix =  0.700 |ddv_scf|^2 =  2.560E-08

     Pert. #  1: Fermi energy shift (Ry) =    -2.3584E-02     0.0000E+00

      iter #   5 total cpu time :  1315.7 secs   av.it.:  14.1
      thresh= 1.600E-05 alpha_mix =  0.700 |ddv_scf|^2 =  1.178E-08

     Pert. #  1: Fermi energy shift (Ry) =    -6.6048E-03     0.0000E+00

      iter #   6 total cpu time :  1333.3 secs   av.it.:  13.5
      thresh= 1.085E-05 alpha_mix =  0.700 |ddv_scf|^2 =  6.878E-10

     Pert. #  1: Fermi energy shift (Ry) =    -5.9611E-03     0.0000E+00

      iter #   7 total cpu time :  1351.9 secs   av.it.:  13.5
      thresh= 2.623E-06 alpha_mix =  0.700 |ddv_scf|^2 =  9.852E-10

     Pert. #  1: Fermi energy shift (Ry) =    -6.3510E-03     0.0000E+00

      iter #   8 total cpu time :  1370.0 secs   av.it.:  12.5
      thresh= 3.139E-06 alpha_mix =  0.700 |ddv_scf|^2 =  2.315E-11

     Pert. #  1: Fermi energy shift (Ry) =    -7.2134E-03     0.0000E+00

      iter #   9 total cpu time :  1386.9 secs   av.it.:  14.0
      thresh= 4.811E-07 alpha_mix =  0.700 |ddv_scf|^2 =  8.798E-12

     Pert. #  1: Fermi energy shift (Ry) =    -6.8437E-03     0.0000E+00

      iter #  10 total cpu time :  1403.7 secs   av.it.:  14.4
      thresh= 2.966E-07 alpha_mix =  0.700 |ddv_scf|^2 =  1.891E-11

     Pert. #  1: Fermi energy shift (Ry) =    -6.6614E-03     0.0000E+00

      iter #  11 total cpu time :  1420.3 secs   av.it.:  13.4
      thresh= 4.348E-07 alpha_mix =  0.700 |ddv_scf|^2 =  2.151E-12

     Pert. #  1: Fermi energy shift (Ry) =    -7.0102E-03     0.0000E+00

      iter #  12 total cpu time :  1437.1 secs   av.it.:  14.1
      thresh= 1.467E-07 alpha_mix =  0.700 |ddv_scf|^2 =  1.603E-12

     Pert. #  1: Fermi energy shift (Ry) =    -6.8700E-03     0.0000E+00

      iter #  13 total cpu time :  1456.1 secs   av.it.:  13.4
      thresh= 1.266E-07 alpha_mix =  0.700 |ddv_scf|^2 =  3.595E-13

     Pert. #  1: Fermi energy shift (Ry) =    -6.8734E-03     0.0000E+00

      iter #  14 total cpu time :  1473.0 secs   av.it.:  13.1
      thresh= 5.995E-08 alpha_mix =  0.700 |ddv_scf|^2 =  4.070E-14

     Pert. #  1: Fermi energy shift (Ry) =    -6.8483E-03     0.0000E+00

      iter #  15 total cpu time :  1491.9 secs   av.it.:  13.4
      thresh= 2.018E-08 alpha_mix =  0.700 |ddv_scf|^2 =  1.699E-14

     Pert. #  1: Fermi energy shift (Ry) =    -6.8651E-03     0.0000E+00

      iter #  16 total cpu time :  1510.6 secs   av.it.:  13.8
      thresh= 1.303E-08 alpha_mix =  0.700 |ddv_scf|^2 =  5.372E-15

     End of self-consistent calculation

     Convergence has been achieved 


     Representation #  6 mode #   6

     Self-consistent Calculation

     Pert. #  1: Fermi energy shift (Ry) =     0.0000E+00     0.0000E+00

      iter #   1 total cpu time :  1525.4 secs   av.it.:   8.8
      thresh= 1.000E-02 alpha_mix =  0.700 |ddv_scf|^2 =  2.689E-05

     Pert. #  1: Fermi energy shift (Ry) =     0.0000E+00     0.0000E+00

      iter #   2 total cpu time :  1542.4 secs   av.it.:  13.4
      thresh= 5.186E-04 alpha_mix =  0.700 |ddv_scf|^2 =  4.924E-06

     Pert. #  1: Fermi energy shift (Ry) =     0.0000E+00     0.0000E+00

      iter #   3 total cpu time :  1558.8 secs   av.it.:  13.1
      thresh= 2.219E-04 alpha_mix =  0.700 |ddv_scf|^2 =  8.976E-08

     Pert. #  1: Fermi energy shift (Ry) =     0.0000E+00     0.0000E+00

      iter #   4 total cpu time :  1574.1 secs   av.it.:  12.9
      thresh= 2.996E-05 alpha_mix =  0.700 |ddv_scf|^2 =  8.164E-10

     Pert. #  1: Fermi energy shift (Ry) =     0.0000E+00     0.0000E+00

      iter #   5 total cpu time :  1591.9 secs   av.it.:  13.5
      thresh= 2.857E-06 alpha_mix =  0.700 |ddv_scf|^2 =  1.453E-11

     Pert. #  1: Fermi energy shift (Ry) =     0.0000E+00     0.0000E+00

      iter #   6 total cpu time :  1610.4 secs   av.it.:  12.1
      thresh= 3.811E-07 alpha_mix =  0.700 |ddv_scf|^2 =  2.497E-13

     Pert. #  1: Fermi energy shift (Ry) =     0.0000E+00     0.0000E+00

      iter #   7 total cpu time :  1627.6 secs   av.it.:  13.0
      thresh= 4.997E-08 alpha_mix =  0.700 |ddv_scf|^2 =  3.141E-15

     End of self-consistent calculation

     Convergence has been achieved 


     Representation #  7 mode #   7

     Self-consistent Calculation

     Pert. #  1: Fermi energy shift (Ry) =     0.0000E+00     0.0000E+00

      iter #   1 total cpu time :  1644.8 secs   av.it.:   8.2
      thresh= 1.000E-02 alpha_mix =  0.700 |ddv_scf|^2 =  2.868E-05

     Pert. #  1: Fermi energy shift (Ry) =     0.0000E+00     0.0000E+00

      iter #   2 total cpu time :  1664.2 secs   av.it.:  13.0
      thresh= 5.355E-04 alpha_mix =  0.700 |ddv_scf|^2 =  5.371E-06

     Pert. #  1: Fermi energy shift (Ry) =     0.0000E+00     0.0000E+00

      iter #   3 total cpu time :  1682.6 secs   av.it.:  12.9
      thresh= 2.318E-04 alpha_mix =  0.700 |ddv_scf|^2 =  8.611E-08

     Pert. #  1: Fermi energy shift (Ry) =     0.0000E+00     0.0000E+00

      iter #   4 total cpu time :  1702.9 secs   av.it.:  13.1
      thresh= 2.934E-05 alpha_mix =  0.700 |ddv_scf|^2 =  1.000E-09

     Pert. #  1: Fermi energy shift (Ry) =     0.0000E+00     0.0000E+00

      iter #   5 total cpu time :  1720.0 secs   av.it.:  13.0
      thresh= 3.163E-06 alpha_mix =  0.700 |ddv_scf|^2 =  2.655E-11

     Pert. #  1: Fermi energy shift (Ry) =     0.0000E+00     0.0000E+00

      iter #   6 total cpu time :  1740.2 secs   av.it.:  12.6
      thresh= 5.153E-07 alpha_mix =  0.700 |ddv_scf|^2 =  1.437E-13

     Pert. #  1: Fermi energy shift (Ry) =     0.0000E+00     0.0000E+00

      iter #   7 total cpu time :  1759.3 secs   av.it.:  13.1
      thresh= 3.791E-08 alpha_mix =  0.700 |ddv_scf|^2 =  4.802E-15

     End of self-consistent calculation

     Convergence has been achieved 


     Representation #  8 mode #   8

     Self-consistent Calculation

     Pert. #  1: Fermi energy shift (Ry) =     0.0000E+00     0.0000E+00

      iter #   1 total cpu time :  1777.2 secs   av.it.:   8.2
      thresh= 1.000E-02 alpha_mix =  0.700 |ddv_scf|^2 =  2.831E-05

     Pert. #  1: Fermi energy shift (Ry) =     0.0000E+00     0.0000E+00

      iter #   2 total cpu time :  1792.8 secs   av.it.:  13.2
      thresh= 5.321E-04 alpha_mix =  0.700 |ddv_scf|^2 =  5.585E-06

     Pert. #  1: Fermi energy shift (Ry) =     0.0000E+00     0.0000E+00

      iter #   3 total cpu time :  1808.3 secs   av.it.:  13.1
      thresh= 2.363E-04 alpha_mix =  0.700 |ddv_scf|^2 =  7.968E-08

     Pert. #  1: Fermi energy shift (Ry) =     0.0000E+00     0.0000E+00

      iter #   4 total cpu time :  1822.8 secs   av.it.:  12.9
      thresh= 2.823E-05 alpha_mix =  0.700 |ddv_scf|^2 =  1.042E-09

     Pert. #  1: Fermi energy shift (Ry) =     0.0000E+00     0.0000E+00

      iter #   5 total cpu time :  1837.6 secs   av.it.:  13.4
      thresh= 3.228E-06 alpha_mix =  0.700 |ddv_scf|^2 =  2.619E-11

     Pert. #  1: Fermi energy shift (Ry) =     0.0000E+00     0.0000E+00

      iter #   6 total cpu time :  1853.5 secs   av.it.:  12.5
      thresh= 5.118E-07 alpha_mix =  0.700 |ddv_scf|^2 =  3.791E-13

     Pert. #  1: Fermi energy shift (Ry) =     0.0000E+00     0.0000E+00

      iter #   7 total cpu time :  1867.1 secs   av.it.:  12.9
      thresh= 6.157E-08 alpha_mix =  0.700 |ddv_scf|^2 =  4.934E-15

     End of self-consistent calculation

     Convergence has been achieved 


     Representation #  9 mode #   9

     Self-consistent Calculation

     Pert. #  1: Fermi energy shift (Ry) =     0.0000E+00     0.0000E+00

      iter #   1 total cpu time :  1881.5 secs   av.it.:   7.5
      thresh= 1.000E-02 alpha_mix =  0.700 |ddv_scf|^2 =  5.687E-06

     Pert. #  1: Fermi energy shift (Ry) =     0.0000E+00     0.0000E+00

      iter #   2 total cpu time :  1895.3 secs   av.it.:  13.6
      thresh= 2.385E-04 alpha_mix =  0.700 |ddv_scf|^2 =  1.333E-06

     Pert. #  1: Fermi energy shift (Ry) =     0.0000E+00     0.0000E+00

      iter #   3 total cpu time :  1911.2 secs   av.it.:  12.9
      thresh= 1.155E-04 alpha_mix =  0.700 |ddv_scf|^2 =  4.910E-09

     Pert. #  1: Fermi energy shift (Ry) =     0.0000E+00     0.0000E+00

      iter #   4 total cpu time :  1926.6 secs   av.it.:  13.6
      thresh= 7.007E-06 alpha_mix =  0.700 |ddv_scf|^2 =  1.012E-10

     Pert. #  1: Fermi energy shift (Ry) =     0.0000E+00     0.0000E+00

      iter #   5 total cpu time :  1941.0 secs   av.it.:  12.9
      thresh= 1.006E-06 alpha_mix =  0.700 |ddv_scf|^2 =  1.994E-12

     Pert. #  1: Fermi energy shift (Ry) =     0.0000E+00     0.0000E+00

      iter #   6 total cpu time :  1954.9 secs   av.it.:  12.4
      thresh= 1.412E-07 alpha_mix =  0.700 |ddv_scf|^2 =  4.094E-14

     Pert. #  1: Fermi energy shift (Ry) =     0.0000E+00     0.0000E+00

      iter #   7 total cpu time :  1968.6 secs   av.it.:  11.6
      thresh= 2.023E-08 alpha_mix =  0.700 |ddv_scf|^2 =  1.548E-16

     End of self-consistent calculation

     Convergence has been achieved 


     Representation # 10 mode #  10

     Self-consistent Calculation

     Pert. #  1: Fermi energy shift (Ry) =     0.0000E+00     0.0000E+00

      iter #   1 total cpu time :  1984.2 secs   av.it.:   8.8
      thresh= 1.000E-02 alpha_mix =  0.700 |ddv_scf|^2 =  2.689E-05

     Pert. #  1: Fermi energy shift (Ry) =     0.0000E+00     0.0000E+00

      iter #   2 total cpu time :  1997.4 secs   av.it.:  13.2
      thresh= 5.186E-04 alpha_mix =  0.700 |ddv_scf|^2 =  4.927E-06

     Pert. #  1: Fermi energy shift (Ry) =     0.0000E+00     0.0000E+00

      iter #   3 total cpu time :  2010.2 secs   av.it.:  13.1
      thresh= 2.220E-04 alpha_mix =  0.700 |ddv_scf|^2 =  8.966E-08

     Pert. #  1: Fermi energy shift (Ry) =     0.0000E+00     0.0000E+00

      iter #   4 total cpu time :  2023.9 secs   av.it.:  12.9
      thresh= 2.994E-05 alpha_mix =  0.700 |ddv_scf|^2 =  8.229E-10

     Pert. #  1: Fermi energy shift (Ry) =     0.0000E+00     0.0000E+00

      iter #   5 total cpu time :  2038.2 secs   av.it.:  13.4
      thresh= 2.869E-06 alpha_mix =  0.700 |ddv_scf|^2 =  1.460E-11

     Pert. #  1: Fermi energy shift (Ry) =     0.0000E+00     0.0000E+00

      iter #   6 total cpu time :  2052.5 secs   av.it.:  12.1
      thresh= 3.821E-07 alpha_mix =  0.700 |ddv_scf|^2 =  2.277E-13

     Pert. #  1: Fermi energy shift (Ry) =     0.0000E+00     0.0000E+00

      iter #   7 total cpu time :  2069.4 secs   av.it.:  13.1
      thresh= 4.772E-08 alpha_mix =  0.700 |ddv_scf|^2 =  3.049E-15

     End of self-consistent calculation

     Convergence has been achieved 


     Representation # 11 mode #  11

     Self-consistent Calculation

     Pert. #  1: Fermi energy shift (Ry) =     0.0000E+00     0.0000E+00

      iter #   1 total cpu time :  2086.0 secs   av.it.:   8.8
      thresh= 1.000E-02 alpha_mix =  0.700 |ddv_scf|^2 =  2.687E-05

     Pert. #  1: Fermi energy shift (Ry) =     0.0000E+00     0.0000E+00

      iter #   2 total cpu time :  2103.5 secs   av.it.:  13.4
      thresh= 5.184E-04 alpha_mix =  0.700 |ddv_scf|^2 =  4.916E-06

     Pert. #  1: Fermi energy shift (Ry) =     0.0000E+00     0.0000E+00

      iter #   3 total cpu time :  2120.8 secs   av.it.:  13.1
      thresh= 2.217E-04 alpha_mix =  0.700 |ddv_scf|^2 =  8.958E-08

     Pert. #  1: Fermi energy shift (Ry) =     0.0000E+00     0.0000E+00

      iter #   4 total cpu time :  2137.6 secs   av.it.:  12.9
      thresh= 2.993E-05 alpha_mix =  0.700 |ddv_scf|^2 =  8.083E-10

     Pert. #  1: Fermi energy shift (Ry) =     0.0000E+00     0.0000E+00

      iter #   5 total cpu time :  2152.9 secs   av.it.:  13.5
      thresh= 2.843E-06 alpha_mix =  0.700 |ddv_scf|^2 =  1.431E-11

     Pert. #  1: Fermi energy shift (Ry) =     0.0000E+00     0.0000E+00

      iter #   6 total cpu time :  2168.7 secs   av.it.:  12.1
      thresh= 3.783E-07 alpha_mix =  0.700 |ddv_scf|^2 =  2.492E-13

     Pert. #  1: Fermi energy shift (Ry) =     0.0000E+00     0.0000E+00

      iter #   7 total cpu time :  2183.6 secs   av.it.:  13.1
      thresh= 4.992E-08 alpha_mix =  0.700 |ddv_scf|^2 =  3.099E-15

     End of self-consistent calculation

     Convergence has been achieved 


     Representation # 12 mode #  12

     Self-consistent Calculation

     Pert. #  1: Fermi energy shift (Ry) =     0.0000E+00     0.0000E+00

      iter #   1 total cpu time :  2198.5 secs   av.it.:   8.8
      thresh= 1.000E-02 alpha_mix =  0.700 |ddv_scf|^2 =  2.688E-05

     Pert. #  1: Fermi energy shift (Ry) =     0.0000E+00     0.0000E+00

      iter #   2 total cpu time :  2214.1 secs   av.it.:  13.2
      thresh= 5.184E-04 alpha_mix =  0.700 |ddv_scf|^2 =  4.917E-06

     Pert. #  1: Fermi energy shift (Ry) =     0.0000E+00     0.0000E+00

      iter #   3 total cpu time :  2230.1 secs   av.it.:  13.1
      thresh= 2.218E-04 alpha_mix =  0.700 |ddv_scf|^2 =  8.950E-08

     Pert. #  1: Fermi energy shift (Ry) =     0.0000E+00     0.0000E+00

      iter #   4 total cpu time :  2245.3 secs   av.it.:  12.9
      thresh= 2.992E-05 alpha_mix =  0.700 |ddv_scf|^2 =  8.151E-10

     Pert. #  1: Fermi energy shift (Ry) =     0.0000E+00     0.0000E+00

      iter #   5 total cpu time :  2261.1 secs   av.it.:  13.4
      thresh= 2.855E-06 alpha_mix =  0.700 |ddv_scf|^2 =  1.441E-11

     Pert. #  1: Fermi energy shift (Ry) =     0.0000E+00     0.0000E+00

      iter #   6 total cpu time :  2275.4 secs   av.it.:  12.1
      thresh= 3.797E-07 alpha_mix =  0.700 |ddv_scf|^2 =  2.255E-13

     Pert. #  1: Fermi energy shift (Ry) =     0.0000E+00     0.0000E+00

      iter #   7 total cpu time :  2291.5 secs   av.it.:  13.1
      thresh= 4.749E-08 alpha_mix =  0.700 |ddv_scf|^2 =  2.999E-15

     End of self-consistent calculation

     Convergence has been achieved 


     Representation # 13 mode #  13

     Self-consistent Calculation

     Pert. #  1: Fermi energy shift (Ry) =     0.0000E+00     0.0000E+00

      iter #   1 total cpu time :  2307.6 secs   av.it.:   8.2
      thresh= 1.000E-02 alpha_mix =  0.700 |ddv_scf|^2 =  2.830E-05

     Pert. #  1: Fermi energy shift (Ry) =     0.0000E+00     0.0000E+00

      iter #   2 total cpu time :  2323.9 secs   av.it.:  13.2
      thresh= 5.319E-04 alpha_mix =  0.700 |ddv_scf|^2 =  5.578E-06

     Pert. #  1: Fermi energy shift (Ry) =     0.0000E+00     0.0000E+00

      iter #   3 total cpu time :  2343.0 secs   av.it.:  13.1
      thresh= 2.362E-04 alpha_mix =  0.700 |ddv_scf|^2 =  7.966E-08

     Pert. #  1: Fermi energy shift (Ry) =     0.0000E+00     0.0000E+00

      iter #   4 total cpu time :  2361.8 secs   av.it.:  12.9
      thresh= 2.822E-05 alpha_mix =  0.700 |ddv_scf|^2 =  1.044E-09

     Pert. #  1: Fermi energy shift (Ry) =     0.0000E+00     0.0000E+00

      iter #   5 total cpu time :  2377.3 secs   av.it.:  13.4
      thresh= 3.231E-06 alpha_mix =  0.700 |ddv_scf|^2 =  2.629E-11

     Pert. #  1: Fermi energy shift (Ry) =     0.0000E+00     0.0000E+00

      iter #   6 total cpu time :  2393.4 secs   av.it.:  12.4
      thresh= 5.128E-07 alpha_mix =  0.700 |ddv_scf|^2 =  3.794E-13

     Pert. #  1: Fermi energy shift (Ry) =     0.0000E+00     0.0000E+00

      iter #   7 total cpu time :  2409.8 secs   av.it.:  12.9
      thresh= 6.160E-08 alpha_mix =  0.700 |ddv_scf|^2 =  4.958E-15

     End of self-consistent calculation

     Convergence has been achieved 


     Representation # 14 mode #  14

     Self-consistent Calculation

     Pert. #  1: Fermi energy shift (Ry) =     0.0000E+00     0.0000E+00

      iter #   1 total cpu time :  2428.4 secs   av.it.:   7.5
      thresh= 1.000E-02 alpha_mix =  0.700 |ddv_scf|^2 =  5.684E-06

     Pert. #  1: Fermi energy shift (Ry) =     0.0000E+00     0.0000E+00

      iter #   2 total cpu time :  2448.3 secs   av.it.:  13.6
      thresh= 2.384E-04 alpha_mix =  0.700 |ddv_scf|^2 =  1.331E-06

     Pert. #  1: Fermi energy shift (Ry) =     0.0000E+00     0.0000E+00

      iter #   3 total cpu time :  2465.0 secs   av.it.:  12.9
      thresh= 1.154E-04 alpha_mix =  0.700 |ddv_scf|^2 =  4.912E-09

     Pert. #  1: Fermi energy shift (Ry) =     0.0000E+00     0.0000E+00

      iter #   4 total cpu time :  2482.7 secs   av.it.:  13.6
      thresh= 7.009E-06 alpha_mix =  0.700 |ddv_scf|^2 =  1.009E-10

     Pert. #  1: Fermi energy shift (Ry) =     0.0000E+00     0.0000E+00

      iter #   5 total cpu time :  2500.3 secs   av.it.:  12.9
      thresh= 1.005E-06 alpha_mix =  0.700 |ddv_scf|^2 =  1.963E-12

     Pert. #  1: Fermi energy shift (Ry) =     0.0000E+00     0.0000E+00

      iter #   6 total cpu time :  2518.3 secs   av.it.:  12.4
      thresh= 1.401E-07 alpha_mix =  0.700 |ddv_scf|^2 =  4.065E-14

     Pert. #  1: Fermi energy shift (Ry) =     0.0000E+00     0.0000E+00

      iter #   7 total cpu time :  2534.9 secs   av.it.:  11.6
      thresh= 2.016E-08 alpha_mix =  0.700 |ddv_scf|^2 =  1.549E-16

     End of self-consistent calculation

     Convergence has been achieved 


     Representation # 15 mode #  15

     Self-consistent Calculation

     Pert. #  1: Fermi energy shift (Ry) =     0.0000E+00     0.0000E+00

      iter #   1 total cpu time :  2552.4 secs   av.it.:   8.2
      thresh= 1.000E-02 alpha_mix =  0.700 |ddv_scf|^2 =  2.867E-05

     Pert. #  1: Fermi energy shift (Ry) =     0.0000E+00     0.0000E+00

      iter #   2 total cpu time :  2569.3 secs   av.it.:  12.9
      thresh= 5.355E-04 alpha_mix =  0.700 |ddv_scf|^2 =  5.365E-06

     Pert. #  1: Fermi energy shift (Ry) =     0.0000E+00     0.0000E+00

      iter #   3 total cpu time :  2586.5 secs   av.it.:  12.9
      thresh= 2.316E-04 alpha_mix =  0.700 |ddv_scf|^2 =  8.622E-08

     Pert. #  1: Fermi energy shift (Ry) =     0.0000E+00     0.0000E+00

      iter #   4 total cpu time :  2607.6 secs   av.it.:  13.1
      thresh= 2.936E-05 alpha_mix =  0.700 |ddv_scf|^2 =  1.014E-09

     Pert. #  1: Fermi energy shift (Ry) =     0.0000E+00     0.0000E+00

      iter #   5 total cpu time :  2626.4 secs   av.it.:  13.0
      thresh= 3.184E-06 alpha_mix =  0.700 |ddv_scf|^2 =  2.742E-11

     Pert. #  1: Fermi energy shift (Ry) =     0.0000E+00     0.0000E+00

      iter #   6 total cpu time :  2644.3 secs   av.it.:  12.8
      thresh= 5.237E-07 alpha_mix =  0.700 |ddv_scf|^2 =  1.456E-13

     Pert. #  1: Fermi energy shift (Ry) =     0.0000E+00     0.0000E+00

      iter #   7 total cpu time :  2660.7 secs   av.it.:  13.1
      thresh= 3.816E-08 alpha_mix =  0.700 |ddv_scf|^2 =  4.994E-15

     End of self-consistent calculation

     Convergence has been achieved 

     Number of q in the star =    1
     List of q in the star:
          1   0.000000000   0.000000000   0.000000000

     Diagonalizing the dynamical matrix

     q = (    0.000000000   0.000000000   0.000000000 ) 

 **************************************************************************
     freq (    1) =      -0.954732 [THz] =     -31.846425 [cm-1]
     freq (    2) =      -0.904528 [THz] =     -30.171808 [cm-1]
     freq (    3) =       0.934533 [THz] =      31.172652 [cm-1]
     freq (    4) =       2.961134 [THz] =      98.772787 [cm-1]
     freq (    5) =       3.005480 [THz] =     100.252005 [cm-1]
     freq (    6) =       3.145487 [THz] =     104.922150 [cm-1]
     freq (    7) =       4.323956 [THz] =     144.231635 [cm-1]
     freq (    8) =       4.512784 [THz] =     150.530260 [cm-1]
     freq (    9) =       4.734760 [THz] =     157.934587 [cm-1]
     freq (   10) =       5.634969 [THz] =     187.962321 [cm-1]
     freq (   11) =       5.687966 [THz] =     189.730112 [cm-1]
     freq (   12) =       5.741075 [THz] =     191.501663 [cm-1]
     freq (   13) =      21.612412 [THz] =     720.912466 [cm-1]
     freq (   14) =      21.626149 [THz] =     721.370691 [cm-1]
     freq (   15) =      23.090035 [THz] =     770.200670 [cm-1]
 **************************************************************************

     Mode symmetry, C_2v (mm2)  point group:

     freq (  1 -  1) =        -31.8  [cm-1]   --> B_2  D_4  S_4   I+R
     freq (  2 -  2) =        -30.2  [cm-1]   --> A_1  D_1  S_1   I+R
     freq (  3 -  3) =         31.2  [cm-1]   --> B_1  D_3  S_3   I+R
     freq (  4 -  4) =         98.8  [cm-1]   --> B_2  D_4  S_4   I+R
     freq (  5 -  5) =        100.3  [cm-1]   --> B_1  D_3  S_3   I+R
     freq (  6 -  6) =        104.9  [cm-1]   --> A_1  D_1  S_1   I+R
     freq (  7 -  7) =        144.2  [cm-1]   --> B_2  D_4  S_4   I+R
     freq (  8 -  8) =        150.5  [cm-1]   --> A_1  D_1  S_1   I+R
     freq (  9 -  9) =        157.9  [cm-1]   --> B_1  D_3  S_3   I+R
     freq ( 10 - 10) =        188.0  [cm-1]   --> B_2  D_4  S_4   I+R
     freq ( 11 - 11) =        189.7  [cm-1]   --> B_1  D_3  S_3   I+R
     freq ( 12 - 12) =        191.5  [cm-1]   --> A_1  D_1  S_1   I+R
     freq ( 13 - 13) =        720.9  [cm-1]   --> B_2  D_4  S_4   I+R
     freq ( 14 - 14) =        721.4  [cm-1]   --> B_1  D_3  S_3   I+R
     freq ( 15 - 15) =        770.2  [cm-1]   --> A_1  D_1  S_1   I+R

     Calculation of q =    0.0000000   0.0000000  -0.5000000

   Info: using nr1, nr2, nr3 values from input

   Info: using nr1, nr2, nr3 values from input

     Parallelization info
     --------------------
     sticks:   dense  smooth     PW     G-vecs:    dense   smooth      PW
     Min          32      32      9                  512      512      86
     Max          33      33     11                  514      514      90
     Sum         481     481    145                 7689     7689    1309



     bravais-lattice index     =            0
     lattice parameter (alat)  =       7.0055  a.u.
     unit-cell volume          =     343.7659 (a.u.)^3
     number of atoms/cell      =            5
     number of atomic types    =            2
     number of electrons       =        49.00
     number of Kohn-Sham states=           30
     kinetic-energy cutoff     =      30.0000  Ry
     charge density cutoff     =     120.0000  Ry
     Exchange-correlation      =  SLA  PW   PBX  PBC ( 1  4  3  4 0 0)

     celldm(1)=   7.005497  celldm(2)=   0.000000  celldm(3)=   0.000000
     celldm(4)=   0.000000  celldm(5)=   0.000000  celldm(6)=   0.000000

     crystal axes: (cart. coord. in units of alat)
               a(1) = (   1.000000   0.000000   0.000000 )  
               a(2) = (   0.000000   0.999876   0.000000 )  
               a(3) = (   0.000000   0.000000   1.000000 )  

     reciprocal axes: (cart. coord. in units 2 pi/alat)
               b(1) = (  1.000000  0.000000  0.000000 )  
               b(2) = (  0.000000  1.000124  0.000000 )  
               b(3) = (  0.000000  0.000000  1.000000 )  


     PseudoPot. # 1 for Cu read from file:
     ../../pseudo/Cu.pbe-dn-kjpaw_psl.1.0.0.UPF
     MD5 check sum: cfffd1f38ee05704b3e17f46f1730a6f
     Pseudo is Projector augmented-wave + core cor, Zval = 11.0
     Generated using "atomic" code by A. Dal Corso  v.6.3
     Shape of augmentation charge: PSQ
     Using radial grid of 1199 points,  6 beta functions with: 
                l(1) =   0
                l(2) =   0
                l(3) =   1
                l(4) =   1
                l(5) =   2
                l(6) =   2
     Q(r) pseudized with 0 coefficients 


     PseudoPot. # 2 for  N read from file:
     ../../pseudo/N.pbe-n-kjpaw_psl.1.0.0.UPF
     MD5 check sum: 14c48229446f9f2d411169a3abcbc3fa
     Pseudo is Projector augmented-wave + core cor, Zval =  5.0
     Generated using "atomic" code by A. Dal Corso  v.6.3
     Shape of augmentation charge: PSQ
     Using radial grid of 1085 points,  4 beta functions with: 
                l(1) =   0
                l(2) =   0
                l(3) =   1
                l(4) =   1
     Q(r) pseudized with 0 coefficients 


     atomic species   valence    mass     pseudopotential
        Cu            11.00    63.54600     Cu( 1.00)
        N              5.00    14.00700      N( 1.00)

     Starting magnetic structure 
     atomic species   magnetization
        Cu           0.000
        N            0.000

      4 Sym. Ops. (no inversion) found



   Cartesian axes

     site n.     atom                  positions (alat units)
         1           Cu  tau(   1) = (   0.0000000   0.0000000   0.0000000  )
         2           Cu  tau(   2) = (   0.5000000   0.4999378   0.0000000  )
         3           Cu  tau(   3) = (   0.0000000   0.4999378   0.4749170  )
         4           Cu  tau(   4) = (   0.5000000   0.0000000   0.4747944  )
         5           N   tau(   5) = (   0.0000000   0.4999378   0.9976365  )

     number of k points=    16  gaussian smearing, width (Ry)=  0.0200
                       cart. coord. in units 2pi/alat
        k(    1) = (   0.1250000   0.1250155   0.1250000), wk =   0.1250000
        k(    2) = (   0.1250000   0.1250155  -0.3750000), wk =   0.0000000
        k(    3) = (   0.1250000   0.1250155   0.3750000), wk =   0.1250000
        k(    4) = (   0.1250000   0.1250155  -0.1250000), wk =   0.0000000
        k(    5) = (   0.1250000   0.3750466   0.1250000), wk =   0.1250000
        k(    6) = (   0.1250000   0.3750466  -0.3750000), wk =   0.0000000
        k(    7) = (   0.1250000   0.3750466   0.3750000), wk =   0.1250000
        k(    8) = (   0.1250000   0.3750466  -0.1250000), wk =   0.0000000
        k(    9) = (   0.3750000   0.1250155   0.3750000), wk =   0.1250000
        k(   10) = (   0.3750000   0.1250155  -0.1250000), wk =   0.0000000
        k(   11) = (   0.3750000   0.3750466   0.3750000), wk =   0.1250000
        k(   12) = (   0.3750000   0.3750466  -0.1250000), wk =   0.0000000
        k(   13) = (   0.3750000  -0.1250155   0.1250000), wk =   0.1250000
        k(   14) = (   0.3750000  -0.1250155  -0.3750000), wk =   0.0000000
        k(   15) = (   0.3750000  -0.3750466   0.1250000), wk =   0.1250000
        k(   16) = (   0.3750000  -0.3750466  -0.3750000), wk =   0.0000000

     Dense  grid:     7689 G-vectors     FFT dimensions: (  25,  25,  25)

     Estimated max dynamical RAM per process >       0.70Mb

     Estimated total allocated dynamical RAM >      10.52Mb
     Generating pointlists ...

     Check: negative/imaginary core charge=   -0.000075    0.000000

     The potential is recalculated from file :
     ./tmp/_ph0/Cu2N.save/charge-density.dat

     Starting wfc are   40 atomic wfcs
     Checking if some PAW data can be deallocated... 

     Band Structure Calculation
     Davidson diagonalization with overlap

     ethr =  2.04E-11,  avg # of iterations = 15.0

     total cpu time spent up to now is       20.1 secs

     End of band structure calculation

 ------ SPIN UP ------------


          k = 0.1250 0.1250 0.1250 (   952 PWs)   bands (ev):

    -4.1955   5.9831   7.0481   7.0852   7.4774   8.8259   8.8343   8.8808
     8.9309   9.1581  10.1191  10.2585  10.2664  10.4650  10.4763  11.0144
    11.2652  11.4306  11.4462  11.7338  11.7346  11.8173  12.0147  12.0212
    14.4776  17.2066  17.2250  17.4490  21.0727  21.0806

          k = 0.1250 0.1250-0.3750 (   950 PWs)   bands (ev):

    -3.8342   5.0655   6.6509   6.6671   7.6551   8.7824   9.0655   9.3570
     9.3579   9.4099   9.8887  10.2089  10.2644  10.4719  10.5366  10.8111
    11.0988  11.3734  11.4472  11.5508  11.6323  11.7764  11.9530  12.2369
    15.0334  15.5318  17.2472  18.9154  20.4476  21.9166

          k = 0.1250 0.1250 0.3750 (   950 PWs)   bands (ev):

    -3.8342   5.0655   6.6509   6.6671   7.6551   8.7824   9.0655   9.3570
     9.3579   9.4099   9.8887  10.2089  10.2644  10.4719  10.5366  10.8111
    11.0988  11.3734  11.4472  11.5508  11.6323  11.7764  11.9530  12.2369
    15.0334  15.5318  17.2472  18.9154  20.4476  21.9166

          k = 0.1250 0.1250-0.1250 (   952 PWs)   bands (ev):

    -4.1955   5.9831   7.0481   7.0852   7.4774   8.8259   8.8343   8.8808
     8.9309   9.1581  10.1191  10.2585  10.2664  10.4650  10.4763  11.0144
    11.2652  11.4306  11.4462  11.7338  11.7346  11.8173  12.0147  12.0212
    14.4776  17.2066  17.2250  17.4490  21.0727  21.0806

          k = 0.1250 0.3750 0.1250 (   950 PWs)   bands (ev):

    -3.8321   5.0296   6.6365   6.7305   7.6745   8.7740   9.0910   9.3255
     9.3774   9.4210   9.8938  10.1677  10.2514  10.4733  10.5233  10.7892
    11.0827  11.3575  11.4629  11.5740  11.6312  11.7861  11.9610  12.2445
    15.0691  15.4839  17.2399  18.9242  20.4379  21.9148

          k = 0.1250 0.3750-0.3750 (   953 PWs)   bands (ev):

    -3.4706   5.0821   5.1517   6.4191   8.2050   9.1658   9.2059   9.5084
     9.5948   9.6558   9.8816   9.9695  10.0286  10.4252  10.5005  10.6628
    10.9354  11.4278  11.4510  11.5207  11.5986  11.7320  12.0538  12.7268
    13.8404  16.2930  16.7855  18.7041  20.1501  21.9005

          k = 0.1250 0.3750 0.3750 (   953 PWs)   bands (ev):

    -3.4706   5.0821   5.1517   6.4191   8.2050   9.1658   9.2059   9.5084
     9.5948   9.6558   9.8816   9.9695  10.0286  10.4252  10.5005  10.6628
    10.9354  11.4278  11.4510  11.5207  11.5986  11.7320  12.0538  12.7268
    13.8404  16.2930  16.7855  18.7041  20.1501  21.9005

          k = 0.1250 0.3750-0.1250 (   950 PWs)   bands (ev):

    -3.8321   5.0296   6.6365   6.7305   7.6745   8.7740   9.0910   9.3255
     9.3774   9.4210   9.8938  10.1677  10.2514  10.4733  10.5233  10.7892
    11.0827  11.3575  11.4629  11.5740  11.6312  11.7861  11.9610  12.2445
    15.0691  15.4839  17.2399  18.9242  20.4379  21.9148

          k = 0.3750 0.1250 0.3750 (   953 PWs)   bands (ev):

    -3.4710   5.0825   5.1519   6.4193   8.2052   9.1658   9.2066   9.5090
     9.5945   9.6565   9.8819   9.9694  10.0279  10.4247  10.5005  10.6627
    10.9351  11.4277  11.4510  11.5204  11.5983  11.7316  12.0532  12.7256
    13.8397  16.2938  16.7861  18.7050  20.1507  21.9016

          k = 0.3750 0.1250-0.1250 (   950 PWs)   bands (ev):

    -3.8324   5.0299   6.6367   6.7306   7.6751   8.7739   9.0914   9.3260
     9.3773   9.4214   9.8936  10.1670  10.2503  10.4736  10.5237  10.7893
    11.0829  11.3576  11.4630  11.5730  11.6313  11.7854  11.9609  12.2434
    15.0696  15.4843  17.2402  18.9244  20.4385  21.9154

          k = 0.3750 0.3750 0.3750 (   958 PWs)   bands (ev):

    -3.0959   4.9708   4.9748   5.0603   8.3544   9.1517   9.3492   9.3765
     9.8566   9.8700  10.0666  10.3407  10.3531  10.5011  10.5065  10.6977
    11.1973  11.4189  11.5017  11.5060  11.6297  11.6372  12.7221  12.7258
    14.5058  14.5148  14.7104  18.1085  20.5222  21.5251

          k = 0.3750 0.3750-0.1250 (   953 PWs)   bands (ev):

    -3.4689   5.0786   5.1217   6.4611   8.2095   9.1775   9.2083   9.5113
     9.5788   9.6630   9.8792   9.9731  10.0104  10.4025  10.5018  10.6630
    10.9490  11.4135  11.4399  11.5278  11.6139  11.7309  12.0593  12.7455
    13.8289  16.2892  16.7814  18.6817  20.1469  21.8924

          k = 0.3750-0.1250 0.1250 (   950 PWs)   bands (ev):

    -3.8324   5.0299   6.6367   6.7306   7.6751   8.7739   9.0914   9.3260
     9.3773   9.4214   9.8936  10.1670  10.2503  10.4736  10.5237  10.7893
    11.0829  11.3576  11.4630  11.5730  11.6313  11.7854  11.9609  12.2434
    15.0696  15.4843  17.2402  18.9244  20.4385  21.9154

          k = 0.3750-0.1250-0.3750 (   953 PWs)   bands (ev):

    -3.4710   5.0825   5.1519   6.4193   8.2052   9.1658   9.2066   9.5090
     9.5945   9.6565   9.8819   9.9694  10.0279  10.4247  10.5005  10.6627
    10.9351  11.4277  11.4510  11.5204  11.5983  11.7316  12.0532  12.7256
    13.8397  16.2938  16.7861  18.7050  20.1507  21.9016

          k = 0.3750-0.3750 0.1250 (   953 PWs)   bands (ev):

    -3.4689   5.0786   5.1217   6.4611   8.2095   9.1775   9.2083   9.5113
     9.5788   9.6630   9.8792   9.9731  10.0104  10.4025  10.5018  10.6630
    10.9490  11.4135  11.4399  11.5278  11.6139  11.7309  12.0593  12.7455
    13.8289  16.2892  16.7814  18.6817  20.1469  21.8924

          k = 0.3750-0.3750-0.3750 (   958 PWs)   bands (ev):

    -3.0959   4.9708   4.9748   5.0603   8.3544   9.1517   9.3492   9.3765
     9.8566   9.8700  10.0666  10.3407  10.3531  10.5011  10.5065  10.6977
    11.1973  11.4189  11.5017  11.5060  11.6297  11.6372  12.7221  12.7258
    14.5058  14.5148  14.7104  18.1085  20.5222  21.5251

 ------ SPIN DOWN ----------


          k = 0.1250 0.1250 0.1250 (   952 PWs)   bands (ev):

    -4.1955   5.9831   7.0481   7.0852   7.4774   8.8259   8.8343   8.8808
     8.9309   9.1581  10.1191  10.2585  10.2664  10.4650  10.4763  11.0144
    11.2652  11.4306  11.4462  11.7338  11.7346  11.8173  12.0147  12.0212
    14.4776  17.2066  17.2250  17.4490  21.0727  21.0806

          k = 0.1250 0.1250-0.3750 (   950 PWs)   bands (ev):

    -3.8342   5.0655   6.6509   6.6671   7.6551   8.7824   9.0655   9.3570
     9.3579   9.4099   9.8887  10.2089  10.2644  10.4719  10.5366  10.8111
    11.0988  11.3734  11.4472  11.5508  11.6323  11.7764  11.9530  12.2369
    15.0334  15.5318  17.2472  18.9154  20.4476  21.9166

          k = 0.1250 0.1250 0.3750 (   950 PWs)   bands (ev):

    -3.8342   5.0655   6.6509   6.6671   7.6551   8.7824   9.0655   9.3570
     9.3579   9.4099   9.8887  10.2089  10.2644  10.4719  10.5366  10.8111
    11.0988  11.3734  11.4472  11.5508  11.6323  11.7764  11.9530  12.2369
    15.0334  15.5318  17.2472  18.9154  20.4476  21.9166

          k = 0.1250 0.1250-0.1250 (   952 PWs)   bands (ev):

    -4.1955   5.9831   7.0481   7.0852   7.4774   8.8259   8.8343   8.8808
     8.9309   9.1581  10.1191  10.2585  10.2664  10.4650  10.4763  11.0144
    11.2652  11.4306  11.4462  11.7338  11.7346  11.8173  12.0147  12.0212
    14.4776  17.2066  17.2250  17.4490  21.0727  21.0806

          k = 0.1250 0.3750 0.1250 (   950 PWs)   bands (ev):

    -3.8321   5.0296   6.6365   6.7305   7.6745   8.7741   9.0910   9.3255
     9.3774   9.4210   9.8938  10.1677  10.2514  10.4733  10.5233  10.7892
    11.0827  11.3575  11.4629  11.5740  11.6312  11.7861  11.9610  12.2445
    15.0691  15.4839  17.2399  18.9242  20.4379  21.9148

          k = 0.1250 0.3750-0.3750 (   953 PWs)   bands (ev):

    -3.4706   5.0821   5.1517   6.4191   8.2050   9.1658   9.2059   9.5084
     9.5948   9.6558   9.8816   9.9695  10.0286  10.4252  10.5005  10.6628
    10.9354  11.4278  11.4510  11.5207  11.5986  11.7320  12.0538  12.7268
    13.8404  16.2930  16.7855  18.7041  20.1501  21.9005

          k = 0.1250 0.3750 0.3750 (   953 PWs)   bands (ev):

    -3.4706   5.0821   5.1517   6.4191   8.2050   9.1658   9.2059   9.5084
     9.5948   9.6558   9.8816   9.9695  10.0286  10.4252  10.5005  10.6628
    10.9354  11.4278  11.4510  11.5207  11.5986  11.7320  12.0538  12.7268
    13.8404  16.2930  16.7855  18.7041  20.1501  21.9005

          k = 0.1250 0.3750-0.1250 (   950 PWs)   bands (ev):

    -3.8321   5.0296   6.6365   6.7305   7.6745   8.7741   9.0910   9.3255
     9.3774   9.4210   9.8938  10.1677  10.2514  10.4733  10.5233  10.7892
    11.0827  11.3575  11.4629  11.5740  11.6312  11.7861  11.9610  12.2445
    15.0691  15.4839  17.2399  18.9242  20.4379  21.9148

          k = 0.3750 0.1250 0.3750 (   953 PWs)   bands (ev):

    -3.4710   5.0825   5.1519   6.4193   8.2052   9.1658   9.2066   9.5090
     9.5945   9.6565   9.8819   9.9694  10.0279  10.4247  10.5005  10.6627
    10.9351  11.4277  11.4510  11.5204  11.5983  11.7316  12.0532  12.7256
    13.8397  16.2938  16.7861  18.7050  20.1507  21.9016

          k = 0.3750 0.1250-0.1250 (   950 PWs)   bands (ev):

    -3.8324   5.0299   6.6367   6.7306   7.6751   8.7739   9.0914   9.3260
     9.3773   9.4214   9.8936  10.1670  10.2503  10.4736  10.5237  10.7893
    11.0829  11.3576  11.4630  11.5730  11.6313  11.7854  11.9609  12.2434
    15.0696  15.4843  17.2402  18.9244  20.4385  21.9154

          k = 0.3750 0.3750 0.3750 (   958 PWs)   bands (ev):

    -3.0959   4.9708   4.9748   5.0603   8.3544   9.1517   9.3492   9.3765
     9.8566   9.8700  10.0666  10.3407  10.3531  10.5011  10.5065  10.6977
    11.1973  11.4189  11.5017  11.5060  11.6297  11.6372  12.7221  12.7258
    14.5058  14.5148  14.7104  18.1085  20.5222  21.5251

          k = 0.3750 0.3750-0.1250 (   953 PWs)   bands (ev):

    -3.4689   5.0786   5.1217   6.4611   8.2095   9.1775   9.2083   9.5113
     9.5788   9.6630   9.8792   9.9731  10.0105  10.4025  10.5018  10.6630
    10.9490  11.4135  11.4399  11.5278  11.6139  11.7309  12.0593  12.7455
    13.8289  16.2892  16.7814  18.6817  20.1469  21.8924

          k = 0.3750-0.1250 0.1250 (   950 PWs)   bands (ev):

    -3.8324   5.0299   6.6367   6.7306   7.6751   8.7739   9.0914   9.3260
     9.3773   9.4214   9.8936  10.1670  10.2503  10.4736  10.5237  10.7893
    11.0829  11.3576  11.4630  11.5730  11.6313  11.7854  11.9609  12.2434
    15.0696  15.4843  17.2402  18.9244  20.4385  21.9154

          k = 0.3750-0.1250-0.3750 (   953 PWs)   bands (ev):

    -3.4710   5.0825   5.1519   6.4193   8.2052   9.1658   9.2066   9.5090
     9.5945   9.6565   9.8819   9.9694  10.0279  10.4247  10.5005  10.6627
    10.9351  11.4277  11.4510  11.5204  11.5983  11.7316  12.0532  12.7256
    13.8397  16.2938  16.7861  18.7050  20.1507  21.9016

          k = 0.3750-0.3750 0.1250 (   953 PWs)   bands (ev):

    -3.4689   5.0786   5.1217   6.4611   8.2095   9.1775   9.2083   9.5113
     9.5788   9.6630   9.8792   9.9731  10.0105  10.4025  10.5018  10.6630
    10.9490  11.4135  11.4399  11.5278  11.6139  11.7309  12.0593  12.7455
    13.8289  16.2892  16.7814  18.6817  20.1469  21.8924

          k = 0.3750-0.3750-0.3750 (   958 PWs)   bands (ev):

    -3.0959   4.9708   4.9748   5.0603   8.3544   9.1517   9.3492   9.3765
     9.8566   9.8700  10.0666  10.3407  10.3531  10.5011  10.5065  10.6977
    11.1973  11.4189  11.5017  11.5060  11.6297  11.6372  12.7221  12.7258
    14.5058  14.5148  14.7104  18.1085  20.5222  21.5251

     the Fermi energy is    14.4066 ev

     Writing output data file Cu2N.save

                                                                                

     bravais-lattice index     =            0
     lattice parameter (alat)  =       7.0055  a.u.
     unit-cell volume          =     343.7659 (a.u.)^3
     number of atoms/cell      =            5
     number of atomic types    =            2
     kinetic-energy cut-off    =      30.0000  Ry
     charge density cut-off    =     120.0000  Ry
     convergence threshold     =      1.0E-14
     beta                      =       0.7000
     number of iterations used =            4
     Exchange-correlation      =  SLA  PW   PBX  PBC ( 1  4  3  4 0 0)


     celldm(1)=    7.00550  celldm(2)=    0.00000  celldm(3)=    0.00000
     celldm(4)=    0.00000  celldm(5)=    0.00000  celldm(6)=    0.00000

     crystal axes: (cart. coord. in units of alat)
               a(1) = (  1.0000  0.0000  0.0000 )  
               a(2) = (  0.0000  0.9999  0.0000 )  
               a(3) = (  0.0000  0.0000  1.0000 )  

     reciprocal axes: (cart. coord. in units 2 pi/alat)
               b(1) = (  1.0000  0.0000  0.0000 )  
               b(2) = (  0.0000  1.0001  0.0000 )  
               b(3) = (  0.0000  0.0000  1.0000 )  


     Atoms inside the unit cell: 

     Cartesian axes

     site n.  atom      mass           positions (alat units)
        1     Cu  63.5460   tau(    1) = (    0.00000    0.00000    0.00000  )
        2     Cu  63.5460   tau(    2) = (    0.50000    0.49994    0.00000  )
        3     Cu  63.5460   tau(    3) = (    0.00000    0.49994    0.47492  )
        4     Cu  63.5460   tau(    4) = (    0.50000    0.00000    0.47479  )
        5     N   14.0070   tau(    5) = (    0.00000    0.49994    0.99764  )

     Computing dynamical matrix for 
                    q = (   0.0000000   0.0000000  -0.5000000 )

      5 Sym.Ops. (with q -> -q+G )


     G cutoff =  149.1761  (    514 G-vectors)     FFT grid: ( 25, 25, 25)

     number of k points=    32  gaussian smearing, width (Ry)=  0.0200

     PseudoPot. # 1 for Cu read from file:
     ../../pseudo/Cu.pbe-dn-kjpaw_psl.1.0.0.UPF
     MD5 check sum: cfffd1f38ee05704b3e17f46f1730a6f
     Pseudo is Projector augmented-wave + core cor, Zval = 11.0
     Generated using "atomic" code by A. Dal Corso  v.6.3
     Shape of augmentation charge: PSQ
     Using radial grid of 1199 points,  6 beta functions with: 
                l(1) =   0
                l(2) =   0
                l(3) =   1
                l(4) =   1
                l(5) =   2
                l(6) =   2
     Q(r) pseudized with 0 coefficients 


     PseudoPot. # 2 for  N read from file:
     ../../pseudo/N.pbe-n-kjpaw_psl.1.0.0.UPF
     MD5 check sum: 14c48229446f9f2d411169a3abcbc3fa
     Pseudo is Projector augmented-wave + core cor, Zval =  5.0
     Generated using "atomic" code by A. Dal Corso  v.6.3
     Shape of augmentation charge: PSQ
     Using radial grid of 1085 points,  4 beta functions with: 
                l(1) =   0
                l(2) =   0
                l(3) =   1
                l(4) =   1
     Q(r) pseudized with 0 coefficients 


     Mode symmetry, C_2v (mm2)  point group:


     Atomic displacements:
     There are  15 irreducible representations

     Representation     1      1 modes -A_1  D_1  S_1  To be done

     Representation     2      1 modes -A_1  D_1  S_1  To be done

     Representation     3      1 modes -A_1  D_1  S_1  To be done

     Representation     4      1 modes -A_1  D_1  S_1  To be done

     Representation     5      1 modes -A_1  D_1  S_1  To be done

     Representation     6      1 modes -B_1  D_3  S_3  To be done

     Representation     7      1 modes -B_1  D_3  S_3  To be done

     Representation     8      1 modes -B_1  D_3  S_3  To be done

     Representation     9      1 modes -B_1  D_3  S_3  To be done

     Representation    10      1 modes -B_1  D_3  S_3  To be done

     Representation    11      1 modes -B_2  D_4  S_4  To be done

     Representation    12      1 modes -B_2  D_4  S_4  To be done

     Representation    13      1 modes -B_2  D_4  S_4  To be done

     Representation    14      1 modes -B_2  D_4  S_4  To be done

     Representation    15      1 modes -B_2  D_4  S_4  To be done



     Alpha used in Ewald sum =   1.1000
     PHONON       : 17m 7.66s CPU    44m49.86s WALL



     Representation #  1 mode #   1

     Self-consistent Calculation

      iter #   1 total cpu time :  2704.4 secs   av.it.:  10.0
      thresh= 1.000E-02 alpha_mix =  0.700 |ddv_scf|^2 =  2.199E-03

      iter #   2 total cpu time :  2723.3 secs   av.it.:  13.7
      thresh= 4.689E-03 alpha_mix =  0.700 |ddv_scf|^2 =  8.958E-02

      iter #   3 total cpu time :  2740.6 secs   av.it.:  12.5
      thresh= 1.000E-02 alpha_mix =  0.700 |ddv_scf|^2 =  3.580E-04

      iter #   4 total cpu time :  2758.4 secs   av.it.:  12.5
      thresh= 1.892E-03 alpha_mix =  0.700 |ddv_scf|^2 =  5.400E-05

      iter #   5 total cpu time :  2774.7 secs   av.it.:  12.4
      thresh= 7.348E-04 alpha_mix =  0.700 |ddv_scf|^2 =  3.793E-05

      iter #   6 total cpu time :  2791.5 secs   av.it.:  11.9
      thresh= 6.159E-04 alpha_mix =  0.700 |ddv_scf|^2 =  3.216E-06

      iter #   7 total cpu time :  2809.3 secs   av.it.:  11.9
      thresh= 1.793E-04 alpha_mix =  0.700 |ddv_scf|^2 =  4.890E-08

      iter #   8 total cpu time :  2825.9 secs   av.it.:  13.8
      thresh= 2.211E-05 alpha_mix =  0.700 |ddv_scf|^2 =  5.260E-08

      iter #   9 total cpu time :  2842.7 secs   av.it.:  13.0
      thresh= 2.293E-05 alpha_mix =  0.700 |ddv_scf|^2 =  2.050E-09

      iter #  10 total cpu time :  2859.7 secs   av.it.:  13.2
      thresh= 4.527E-06 alpha_mix =  0.700 |ddv_scf|^2 =  9.901E-10

      iter #  11 total cpu time :  2876.5 secs   av.it.:  12.4
      thresh= 3.147E-06 alpha_mix =  0.700 |ddv_scf|^2 =  2.065E-10

      iter #  12 total cpu time :  2894.4 secs   av.it.:  13.1
      thresh= 1.437E-06 alpha_mix =  0.700 |ddv_scf|^2 =  1.838E-11

      iter #  13 total cpu time :  2912.0 secs   av.it.:  14.0
      thresh= 4.287E-07 alpha_mix =  0.700 |ddv_scf|^2 =  6.630E-12

      iter #  14 total cpu time :  2931.1 secs   av.it.:  14.1
      thresh= 2.575E-07 alpha_mix =  0.700 |ddv_scf|^2 =  2.772E-12

      iter #  15 total cpu time :  2947.8 secs   av.it.:  13.9
      thresh= 1.665E-07 alpha_mix =  0.700 |ddv_scf|^2 =  6.071E-13

      iter #  16 total cpu time :  2965.1 secs   av.it.:  13.1
      thresh= 7.792E-08 alpha_mix =  0.700 |ddv_scf|^2 =  2.675E-13

      iter #  17 total cpu time :  2980.7 secs   av.it.:  12.9
      thresh= 5.172E-08 alpha_mix =  0.700 |ddv_scf|^2 =  9.724E-13

      iter #  18 total cpu time :  2996.3 secs   av.it.:  11.9
      thresh= 9.861E-08 alpha_mix =  0.700 |ddv_scf|^2 =  2.095E-14

      iter #  19 total cpu time :  3015.3 secs   av.it.:  13.8
      thresh= 1.447E-08 alpha_mix =  0.700 |ddv_scf|^2 =  8.340E-15

     End of self-consistent calculation

     Convergence has been achieved 


     Representation #  2 mode #   2

     Self-consistent Calculation

      iter #   1 total cpu time :  3034.0 secs   av.it.:   9.6
      thresh= 1.000E-02 alpha_mix =  0.700 |ddv_scf|^2 =  1.943E-03

      iter #   2 total cpu time :  3052.9 secs   av.it.:  13.6
      thresh= 4.408E-03 alpha_mix =  0.700 |ddv_scf|^2 =  7.438E-02

      iter #   3 total cpu time :  3069.9 secs   av.it.:  12.5
      thresh= 1.000E-02 alpha_mix =  0.700 |ddv_scf|^2 =  5.481E-04

      iter #   4 total cpu time :  3087.6 secs   av.it.:  12.4
      thresh= 2.341E-03 alpha_mix =  0.700 |ddv_scf|^2 =  1.247E-04

      iter #   5 total cpu time :  3103.6 secs   av.it.:  11.4
      thresh= 1.117E-03 alpha_mix =  0.700 |ddv_scf|^2 =  6.459E-05

      iter #   6 total cpu time :  3121.3 secs   av.it.:  12.0
      thresh= 8.037E-04 alpha_mix =  0.700 |ddv_scf|^2 =  1.443E-06

      iter #   7 total cpu time :  3138.5 secs   av.it.:  13.0
      thresh= 1.201E-04 alpha_mix =  0.700 |ddv_scf|^2 =  1.491E-08

      iter #   8 total cpu time :  3156.8 secs   av.it.:  14.0
      thresh= 1.221E-05 alpha_mix =  0.700 |ddv_scf|^2 =  5.545E-08

      iter #   9 total cpu time :  3174.5 secs   av.it.:  13.0
      thresh= 2.355E-05 alpha_mix =  0.700 |ddv_scf|^2 =  3.462E-09

      iter #  10 total cpu time :  3193.6 secs   av.it.:  13.2
      thresh= 5.884E-06 alpha_mix =  0.700 |ddv_scf|^2 =  1.051E-09

      iter #  11 total cpu time :  3211.5 secs   av.it.:  12.6
      thresh= 3.243E-06 alpha_mix =  0.700 |ddv_scf|^2 =  1.049E-10

      iter #  12 total cpu time :  3231.2 secs   av.it.:  13.4
      thresh= 1.024E-06 alpha_mix =  0.700 |ddv_scf|^2 =  5.156E-11

      iter #  13 total cpu time :  3250.5 secs   av.it.:  14.8
      thresh= 7.181E-07 alpha_mix =  0.700 |ddv_scf|^2 =  3.997E-10

      iter #  14 total cpu time :  3267.5 secs   av.it.:  12.4
      thresh= 1.999E-06 alpha_mix =  0.700 |ddv_scf|^2 =  1.359E-11

      iter #  15 total cpu time :  3285.2 secs   av.it.:  13.8
      thresh= 3.686E-07 alpha_mix =  0.700 |ddv_scf|^2 =  5.353E-12

      iter #  16 total cpu time :  3301.0 secs   av.it.:  13.1
      thresh= 2.314E-07 alpha_mix =  0.700 |ddv_scf|^2 =  3.174E-12

      iter #  17 total cpu time :  3318.5 secs   av.it.:  13.9
      thresh= 1.782E-07 alpha_mix =  0.700 |ddv_scf|^2 =  2.005E-11

      iter #  18 total cpu time :  3334.6 secs   av.it.:  12.6
      thresh= 4.478E-07 alpha_mix =  0.700 |ddv_scf|^2 =  1.306E-12

      iter #  19 total cpu time :  3351.4 secs   av.it.:  12.9
      thresh= 1.143E-07 alpha_mix =  0.700 |ddv_scf|^2 =  8.091E-14

      iter #  20 total cpu time :  3369.6 secs   av.it.:  14.5
      thresh= 2.845E-08 alpha_mix =  0.700 |ddv_scf|^2 =  3.062E-13

      iter #  21 total cpu time :  3389.7 secs   av.it.:  13.9
      thresh= 5.534E-08 alpha_mix =  0.700 |ddv_scf|^2 =  1.487E-13

      iter #  22 total cpu time :  3408.6 secs   av.it.:  13.5
      thresh= 3.857E-08 alpha_mix =  0.700 |ddv_scf|^2 =  1.372E-14

      iter #  23 total cpu time :  3426.1 secs   av.it.:  13.1
      thresh= 1.171E-08 alpha_mix =  0.700 |ddv_scf|^2 =  1.805E-15

     End of self-consistent calculation

     Convergence has been achieved 


     Representation #  3 mode #   3

     Self-consistent Calculation

      iter #   1 total cpu time :  3444.0 secs   av.it.:  10.1
      thresh= 1.000E-02 alpha_mix =  0.700 |ddv_scf|^2 =  1.157E-03

      iter #   2 total cpu time :  3462.1 secs   av.it.:  13.8
      thresh= 3.401E-03 alpha_mix =  0.700 |ddv_scf|^2 =  2.121E-02

      iter #   3 total cpu time :  3480.3 secs   av.it.:  12.1
      thresh= 1.000E-02 alpha_mix =  0.700 |ddv_scf|^2 =  2.657E-04

      iter #   4 total cpu time :  3501.5 secs   av.it.:  12.6
      thresh= 1.630E-03 alpha_mix =  0.700 |ddv_scf|^2 =  5.336E-05

      iter #   5 total cpu time :  3519.2 secs   av.it.:  12.1
      thresh= 7.305E-04 alpha_mix =  0.700 |ddv_scf|^2 =  4.455E-05

      iter #   6 total cpu time :  3537.2 secs   av.it.:  12.1
      thresh= 6.674E-04 alpha_mix =  0.700 |ddv_scf|^2 =  5.315E-06

      iter #   7 total cpu time :  3558.7 secs   av.it.:  12.0
      thresh= 2.306E-04 alpha_mix =  0.700 |ddv_scf|^2 =  3.558E-08

      iter #   8 total cpu time :  3580.7 secs   av.it.:  13.9
      thresh= 1.886E-05 alpha_mix =  0.700 |ddv_scf|^2 =  4.487E-08

      iter #   9 total cpu time :  3601.5 secs   av.it.:  12.9
      thresh= 2.118E-05 alpha_mix =  0.700 |ddv_scf|^2 =  1.356E-09

      iter #  10 total cpu time :  3623.9 secs   av.it.:  14.2
      thresh= 3.682E-06 alpha_mix =  0.700 |ddv_scf|^2 =  1.327E-09

      iter #  11 total cpu time :  3645.1 secs   av.it.:  13.9
      thresh= 3.642E-06 alpha_mix =  0.700 |ddv_scf|^2 =  8.357E-10

      iter #  12 total cpu time :  3664.4 secs   av.it.:  12.8
      thresh= 2.891E-06 alpha_mix =  0.700 |ddv_scf|^2 =  1.078E-10

      iter #  13 total cpu time :  3684.9 secs   av.it.:  13.6
      thresh= 1.038E-06 alpha_mix =  0.700 |ddv_scf|^2 =  3.975E-11

      iter #  14 total cpu time :  3704.2 secs   av.it.:  13.8
      thresh= 6.305E-07 alpha_mix =  0.700 |ddv_scf|^2 =  2.373E-11

      iter #  15 total cpu time :  3723.4 secs   av.it.:  13.9
      thresh= 4.871E-07 alpha_mix =  0.700 |ddv_scf|^2 =  1.601E-11

      iter #  16 total cpu time :  3740.8 secs   av.it.:  13.5
      thresh= 4.002E-07 alpha_mix =  0.700 |ddv_scf|^2 =  2.280E-12

      iter #  17 total cpu time :  3759.7 secs   av.it.:  15.2
      thresh= 1.510E-07 alpha_mix =  0.700 |ddv_scf|^2 =  2.201E-11

      iter #  18 total cpu time :  3777.9 secs   av.it.:  12.9
      thresh= 4.691E-07 alpha_mix =  0.700 |ddv_scf|^2 =  1.657E-11

      iter #  19 total cpu time :  3796.3 secs   av.it.:  12.9
      thresh= 4.070E-07 alpha_mix =  0.700 |ddv_scf|^2 =  2.865E-12

      iter #  20 total cpu time :  3813.7 secs   av.it.:  13.1
      thresh= 1.693E-07 alpha_mix =  0.700 |ddv_scf|^2 =  1.573E-12

      iter #  21 total cpu time :  3831.1 secs   av.it.:  14.9
      thresh= 1.254E-07 alpha_mix =  0.700 |ddv_scf|^2 =  7.148E-12

      iter #  22 total cpu time :  3848.1 secs   av.it.:  13.9
      thresh= 2.674E-07 alpha_mix =  0.700 |ddv_scf|^2 =  3.964E-12

      iter #  23 total cpu time :  3866.6 secs   av.it.:  12.9
      thresh= 1.991E-07 alpha_mix =  0.700 |ddv_scf|^2 =  7.085E-13

      iter #  24 total cpu time :  3882.6 secs   av.it.:  12.9
      thresh= 8.417E-08 alpha_mix =  0.700 |ddv_scf|^2 =  5.048E-13

      iter #  25 total cpu time :  3900.7 secs   av.it.:  14.9
      thresh= 7.105E-08 alpha_mix =  0.700 |ddv_scf|^2 =  2.102E-12

      iter #  26 total cpu time :  3918.8 secs   av.it.:  13.5
      thresh= 1.450E-07 alpha_mix =  0.700 |ddv_scf|^2 =  1.337E-13

      iter #  27 total cpu time :  3936.8 secs   av.it.:  13.9
      thresh= 3.656E-08 alpha_mix =  0.700 |ddv_scf|^2 =  8.684E-14

      iter #  28 total cpu time :  3957.7 secs   av.it.:  14.9
      thresh= 2.947E-08 alpha_mix =  0.700 |ddv_scf|^2 =  4.395E-13

      iter #  29 total cpu time :  3976.9 secs   av.it.:  12.9
      thresh= 6.629E-08 alpha_mix =  0.700 |ddv_scf|^2 =  2.892E-13

      iter #  30 total cpu time :  3995.1 secs   av.it.:  12.8
      thresh= 5.378E-08 alpha_mix =  0.700 |ddv_scf|^2 =  8.954E-14

      iter #  31 total cpu time :  4015.0 secs   av.it.:  13.1
      thresh= 2.992E-08 alpha_mix =  0.700 |ddv_scf|^2 =  1.437E-14

      iter #  32 total cpu time :  4038.1 secs   av.it.:  15.1
      thresh= 1.199E-08 alpha_mix =  0.700 |ddv_scf|^2 =  1.503E-13

      iter #  33 total cpu time :  4057.1 secs   av.it.:  13.4
      thresh= 3.877E-08 alpha_mix =  0.700 |ddv_scf|^2 =  3.693E-14

      iter #  34 total cpu time :  4077.6 secs   av.it.:  13.9
      thresh= 1.922E-08 alpha_mix =  0.700 |ddv_scf|^2 =  7.231E-15

     End of self-consistent calculation

     Convergence has been achieved 


     Representation #  4 mode #   4

     Self-consistent Calculation

      iter #   1 total cpu time :  4095.4 secs   av.it.:  10.0
      thresh= 1.000E-02 alpha_mix =  0.700 |ddv_scf|^2 =  1.157E-03

      iter #   2 total cpu time :  4114.9 secs   av.it.:  13.8
      thresh= 3.401E-03 alpha_mix =  0.700 |ddv_scf|^2 =  2.121E-02

      iter #   3 total cpu time :  4132.5 secs   av.it.:  12.1
      thresh= 1.000E-02 alpha_mix =  0.700 |ddv_scf|^2 =  2.657E-04

      iter #   4 total cpu time :  4152.3 secs   av.it.:  12.6
      thresh= 1.630E-03 alpha_mix =  0.700 |ddv_scf|^2 =  5.337E-05

      iter #   5 total cpu time :  4170.9 secs   av.it.:  12.1
      thresh= 7.306E-04 alpha_mix =  0.700 |ddv_scf|^2 =  4.454E-05

      iter #   6 total cpu time :  4188.4 secs   av.it.:  12.1
      thresh= 6.674E-04 alpha_mix =  0.700 |ddv_scf|^2 =  5.313E-06

      iter #   7 total cpu time :  4205.3 secs   av.it.:  12.1
      thresh= 2.305E-04 alpha_mix =  0.700 |ddv_scf|^2 =  3.565E-08

      iter #   8 total cpu time :  4222.5 secs   av.it.:  13.9
      thresh= 1.888E-05 alpha_mix =  0.700 |ddv_scf|^2 =  4.487E-08

      iter #   9 total cpu time :  4240.5 secs   av.it.:  12.9
      thresh= 2.118E-05 alpha_mix =  0.700 |ddv_scf|^2 =  1.352E-09

      iter #  10 total cpu time :  4258.1 secs   av.it.:  14.2
      thresh= 3.677E-06 alpha_mix =  0.700 |ddv_scf|^2 =  1.241E-09

      iter #  11 total cpu time :  4275.5 secs   av.it.:  13.9
      thresh= 3.522E-06 alpha_mix =  0.700 |ddv_scf|^2 =  8.397E-10

      iter #  12 total cpu time :  4297.0 secs   av.it.:  12.6
      thresh= 2.898E-06 alpha_mix =  0.700 |ddv_scf|^2 =  1.044E-10

      iter #  13 total cpu time :  4315.2 secs   av.it.:  13.4
      thresh= 1.022E-06 alpha_mix =  0.700 |ddv_scf|^2 =  4.059E-11

      iter #  14 total cpu time :  4337.9 secs   av.it.:  13.8
      thresh= 6.371E-07 alpha_mix =  0.700 |ddv_scf|^2 =  2.145E-11

      iter #  15 total cpu time :  4357.8 secs   av.it.:  13.9
      thresh= 4.631E-07 alpha_mix =  0.700 |ddv_scf|^2 =  1.117E-11

      iter #  16 total cpu time :  4375.7 secs   av.it.:  13.8
      thresh= 3.343E-07 alpha_mix =  0.700 |ddv_scf|^2 =  2.317E-12

      iter #  17 total cpu time :  4395.4 secs   av.it.:  15.1
      thresh= 1.522E-07 alpha_mix =  0.700 |ddv_scf|^2 =  1.930E-11

      iter #  18 total cpu time :  4414.6 secs   av.it.:  12.9
      thresh= 4.393E-07 alpha_mix =  0.700 |ddv_scf|^2 =  1.295E-11

      iter #  19 total cpu time :  4432.5 secs   av.it.:  12.7
      thresh= 3.599E-07 alpha_mix =  0.700 |ddv_scf|^2 =  2.222E-12

      iter #  20 total cpu time :  4451.9 secs   av.it.:  13.1
      thresh= 1.491E-07 alpha_mix =  0.700 |ddv_scf|^2 =  2.009E-12

      iter #  21 total cpu time :  4469.8 secs   av.it.:  14.9
      thresh= 1.417E-07 alpha_mix =  0.700 |ddv_scf|^2 =  7.970E-12

      iter #  22 total cpu time :  4488.1 secs   av.it.:  13.4
      thresh= 2.823E-07 alpha_mix =  0.700 |ddv_scf|^2 =  2.972E-12

      iter #  23 total cpu time :  4504.2 secs   av.it.:  12.9
      thresh= 1.724E-07 alpha_mix =  0.700 |ddv_scf|^2 =  5.246E-13

      iter #  24 total cpu time :  4520.8 secs   av.it.:  12.8
      thresh= 7.243E-08 alpha_mix =  0.700 |ddv_scf|^2 =  4.645E-13

      iter #  25 total cpu time :  4537.8 secs   av.it.:  14.9
      thresh= 6.816E-08 alpha_mix =  0.700 |ddv_scf|^2 =  1.715E-12

      iter #  26 total cpu time :  4553.6 secs   av.it.:  13.5
      thresh= 1.309E-07 alpha_mix =  0.700 |ddv_scf|^2 =  6.698E-14

      iter #  27 total cpu time :  4569.7 secs   av.it.:  13.9
      thresh= 2.588E-08 alpha_mix =  0.700 |ddv_scf|^2 =  5.078E-14

      iter #  28 total cpu time :  4586.9 secs   av.it.:  14.9
      thresh= 2.253E-08 alpha_mix =  0.700 |ddv_scf|^2 =  3.116E-13

      iter #  29 total cpu time :  4604.4 secs   av.it.:  12.9
      thresh= 5.582E-08 alpha_mix =  0.700 |ddv_scf|^2 =  1.115E-13

      iter #  30 total cpu time :  4622.5 secs   av.it.:  12.9
      thresh= 3.339E-08 alpha_mix =  0.700 |ddv_scf|^2 =  4.112E-14

      iter #  31 total cpu time :  4642.6 secs   av.it.:  12.8
      thresh= 2.028E-08 alpha_mix =  0.700 |ddv_scf|^2 =  4.340E-15

     End of self-consistent calculation

     Convergence has been achieved 


     Representation #  5 mode #   5

     Self-consistent Calculation

      iter #   1 total cpu time :  4658.0 secs   av.it.:   8.2
      thresh= 1.000E-02 alpha_mix =  0.700 |ddv_scf|^2 =  2.720E-04

      iter #   2 total cpu time :  4675.9 secs   av.it.:  13.8
      thresh= 1.649E-03 alpha_mix =  0.700 |ddv_scf|^2 =  5.709E-03

      iter #   3 total cpu time :  4692.1 secs   av.it.:  11.4
      thresh= 7.556E-03 alpha_mix =  0.700 |ddv_scf|^2 =  3.575E-05

      iter #   4 total cpu time :  4708.5 secs   av.it.:  12.6
      thresh= 5.979E-04 alpha_mix =  0.700 |ddv_scf|^2 =  1.102E-05

      iter #   5 total cpu time :  4725.6 secs   av.it.:  11.4
      thresh= 3.320E-04 alpha_mix =  0.700 |ddv_scf|^2 =  6.381E-06

      iter #   6 total cpu time :  4742.5 secs   av.it.:  12.0
      thresh= 2.526E-04 alpha_mix =  0.700 |ddv_scf|^2 =  2.765E-08

      iter #   7 total cpu time :  4758.6 secs   av.it.:  13.5
      thresh= 1.663E-05 alpha_mix =  0.700 |ddv_scf|^2 =  1.693E-08

      iter #   8 total cpu time :  4774.9 secs   av.it.:  12.5
      thresh= 1.301E-05 alpha_mix =  0.700 |ddv_scf|^2 =  3.987E-10

      iter #   9 total cpu time :  4790.8 secs   av.it.:  13.2
      thresh= 1.997E-06 alpha_mix =  0.700 |ddv_scf|^2 =  1.456E-10

      iter #  10 total cpu time :  4808.5 secs   av.it.:  13.6
      thresh= 1.207E-06 alpha_mix =  0.700 |ddv_scf|^2 =  3.787E-11

      iter #  11 total cpu time :  4825.3 secs   av.it.:  14.0
[...]

          k = 0.1250 0.1250 0.3750 (   950 PWs)   bands (ev):

    -3.8342   5.0655   6.6509   6.6671   7.6551   8.7824   9.0655   9.3570
     9.3579   9.4099   9.8887  10.2089  10.2644  10.4719  10.5366  10.8111
    11.0988  11.3734  11.4472  11.5508  11.6323  11.7764  11.9530  12.2369
    15.0334  15.5318  17.2472  18.9154  20.4476  21.9166

          k =-0.3750 0.1250 0.3750 (   953 PWs)   bands (ev):

    -3.4710   5.0825   5.1519   6.4193   8.2052   9.1658   9.2066   9.5090
     9.5945   9.6565   9.8819   9.9694  10.0279  10.4247  10.5005  10.6627
    10.9351  11.4277  11.4510  11.5204  11.5983  11.7316  12.0532  12.7256
    13.8397  16.2938  16.7861  18.7050  20.1507  21.9016

          k = 0.1250 0.3750 0.1250 (   950 PWs)   bands (ev):

    -3.8321   5.0296   6.6365   6.7305   7.6745   8.7740   9.0910   9.3255
     9.3774   9.4210   9.8938  10.1677  10.2514  10.4733  10.5233  10.7892
    11.0827  11.3575  11.4629  11.5740  11.6312  11.7861  11.9610  12.2445
    15.0691  15.4839  17.2399  18.9242  20.4379  21.9148

          k =-0.3750 0.3750 0.1250 (   953 PWs)   bands (ev):

    -3.4689   5.0786   5.1217   6.4611   8.2095   9.1775   9.2083   9.5113
     9.5788   9.6630   9.8792   9.9731  10.0104  10.4025  10.5018  10.6630
    10.9490  11.4135  11.4399  11.5278  11.6139  11.7309  12.0593  12.7455
    13.8289  16.2892  16.7814  18.6817  20.1469  21.8924

          k = 0.1250 0.3750 0.3750 (   953 PWs)   bands (ev):

    -3.4706   5.0821   5.1517   6.4191   8.2050   9.1658   9.2059   9.5084
     9.5948   9.6558   9.8816   9.9695  10.0286  10.4252  10.5005  10.6628
    10.9354  11.4278  11.4510  11.5207  11.5986  11.7320  12.0538  12.7268
    13.8404  16.2930  16.7855  18.7041  20.1501  21.9005

          k =-0.3750 0.3750 0.3750 (   958 PWs)   bands (ev):

    -3.0959   4.9708   4.9748   5.0603   8.3544   9.1517   9.3492   9.3765
     9.8566   9.8700  10.0666  10.3407  10.3531  10.5011  10.5065  10.6977
    11.1973  11.4189  11.5017  11.5060  11.6297  11.6372  12.7221  12.7258
    14.5058  14.5148  14.7104  18.1085  20.5222  21.5251

          k = 0.3750 0.1250 0.3750 (   953 PWs)   bands (ev):

    -3.4710   5.0825   5.1519   6.4193   8.2052   9.1658   9.2066   9.5090
     9.5945   9.6565   9.8819   9.9694  10.0279  10.4247  10.5005  10.6627
    10.9351  11.4277  11.4510  11.5204  11.5983  11.7316  12.0532  12.7256
    13.8397  16.2938  16.7861  18.7050  20.1507  21.9016

          k =-0.1250 0.1250 0.3750 (   950 PWs)   bands (ev):

    -3.8342   5.0655   6.6509   6.6671   7.6551   8.7824   9.0655   9.3570
     9.3579   9.4099   9.8887  10.2089  10.2644  10.4719  10.5366  10.8111
    11.0988  11.3734  11.4472  11.5508  11.6323  11.7764  11.9530  12.2369
    15.0334  15.5318  17.2472  18.9154  20.4476  21.9166

          k = 0.3750 0.3750 0.3750 (   958 PWs)   bands (ev):

    -3.0959   4.9708   4.9748   5.0603   8.3544   9.1517   9.3492   9.3765
     9.8566   9.8700  10.0666  10.3407  10.3531  10.5011  10.5065  10.6977
    11.1973  11.4189  11.5017  11.5060  11.6297  11.6372  12.7221  12.7258
    14.5058  14.5148  14.7104  18.1085  20.5222  21.5251

          k =-0.1250 0.3750 0.3750 (   953 PWs)   bands (ev):

    -3.4706   5.0821   5.1517   6.4191   8.2050   9.1658   9.2059   9.5084
     9.5948   9.6558   9.8816   9.9695  10.0286  10.4252  10.5005  10.6628
    10.9354  11.4278  11.4510  11.5207  11.5986  11.7320  12.0538  12.7268
    13.8404  16.2930  16.7855  18.7041  20.1501  21.9005

          k = 0.3750-0.1250 0.1250 (   950 PWs)   bands (ev):

    -3.8324   5.0299   6.6367   6.7306   7.6751   8.7739   9.0914   9.3260
     9.3773   9.4214   9.8936  10.1670  10.2503  10.4736  10.5237  10.7893
    11.0829  11.3576  11.4630  11.5730  11.6313  11.7854  11.9609  12.2434
    15.0696  15.4843  17.2402  18.9244  20.4385  21.9154

          k =-0.1250-0.1250 0.1250 (   952 PWs)   bands (ev):

    -4.1955   5.9831   7.0481   7.0852   7.4774   8.8259   8.8343   8.8808
     8.9309   9.1581  10.1191  10.2585  10.2664  10.4650  10.4763  11.0144
    11.2652  11.4306  11.4462  11.7338  11.7346  11.8173  12.0147  12.0212
    14.4776  17.2066  17.2250  17.4490  21.0727  21.0806

          k = 0.3750-0.3750 0.1250 (   953 PWs)   bands (ev):

    -3.4689   5.0786   5.1217   6.4611   8.2095   9.1775   9.2083   9.5113
     9.5788   9.6630   9.8792   9.9731  10.0104  10.4025  10.5018  10.6630
    10.9490  11.4135  11.4399  11.5278  11.6139  11.7309  12.0593  12.7455
    13.8289  16.2892  16.7814  18.6817  20.1469  21.8924

          k =-0.1250-0.3750 0.1250 (   950 PWs)   bands (ev):

    -3.8321   5.0296   6.6365   6.7305   7.6745   8.7740   9.0910   9.3255
     9.3774   9.4210   9.8938  10.1677  10.2514  10.4733  10.5233  10.7892
    11.0827  11.3575  11.4629  11.5740  11.6312  11.7861  11.9610  12.2445
    15.0691  15.4839  17.2399  18.9242  20.4379  21.9148

 ------ SPIN DOWN ----------


          k = 0.1250 0.1250 0.1250 (   952 PWs)   bands (ev):

    -4.1955   5.9831   7.0481   7.0852   7.4774   8.8259   8.8343   8.8808
     8.9309   9.1581  10.1191  10.2585  10.2664  10.4650  10.4763  11.0144
    11.2652  11.4306  11.4462  11.7338  11.7346  11.8173  12.0147  12.0212
    14.4776  17.2066  17.2250  17.4490  21.0727  21.0806

          k =-0.3750 0.1250 0.1250 (   950 PWs)   bands (ev):

    -3.8324   5.0299   6.6367   6.7306   7.6751   8.7739   9.0914   9.3260
     9.3773   9.4214   9.8936  10.1670  10.2503  10.4736  10.5237  10.7893
    11.0829  11.3576  11.4630  11.5730  11.6313  11.7854  11.9609  12.2434
    15.0696  15.4843  17.2402  18.9244  20.4385  21.9154

          k = 0.1250 0.1250 0.3750 (   950 PWs)   bands (ev):

    -3.8342   5.0655   6.6509   6.6671   7.6551   8.7824   9.0655   9.3570
     9.3579   9.4099   9.8887  10.2089  10.2644  10.4719  10.5366  10.8111
    11.0988  11.3734  11.4472  11.5508  11.6323  11.7764  11.9530  12.2369
    15.0334  15.5318  17.2472  18.9154  20.4476  21.9166

          k =-0.3750 0.1250 0.3750 (   953 PWs)   bands (ev):

    -3.4710   5.0825   5.1519   6.4193   8.2052   9.1658   9.2066   9.5090
     9.5945   9.6565   9.8819   9.9694  10.0279  10.4247  10.5005  10.6627
    10.9351  11.4277  11.4510  11.5204  11.5983  11.7316  12.0532  12.7256
    13.8397  16.2938  16.7861  18.7050  20.1507  21.9016

          k = 0.1250 0.3750 0.1250 (   950 PWs)   bands (ev):

    -3.8321   5.0296   6.6365   6.7305   7.6745   8.7741   9.0910   9.3255
     9.3774   9.4210   9.8938  10.1677  10.2514  10.4733  10.5233  10.7892
    11.0827  11.3575  11.4629  11.5740  11.6312  11.7861  11.9610  12.2445
    15.0691  15.4839  17.2399  18.9242  20.4379  21.9148

          k =-0.3750 0.3750 0.1250 (   953 PWs)   bands (ev):

    -3.4689   5.0786   5.1217   6.4611   8.2095   9.1775   9.2083   9.5113
     9.5788   9.6630   9.8792   9.9731  10.0105  10.4025  10.5018  10.6630
    10.9490  11.4135  11.4399  11.5278  11.6139  11.7309  12.0593  12.7455
    13.8289  16.2892  16.7814  18.6817  20.1469  21.8924

          k = 0.1250 0.3750 0.3750 (   953 PWs)   bands (ev):

    -3.4706   5.0821   5.1517   6.4191   8.2050   9.1658   9.2059   9.5084
     9.5948   9.6558   9.8816   9.9695  10.0286  10.4252  10.5005  10.6628
    10.9354  11.4278  11.4510  11.5207  11.5986  11.7320  12.0538  12.7268
    13.8404  16.2930  16.7855  18.7041  20.1501  21.9005

          k =-0.3750 0.3750 0.3750 (   958 PWs)   bands (ev):

    -3.0959   4.9708   4.9748   5.0603   8.3544   9.1517   9.3492   9.3765
     9.8566   9.8700  10.0666  10.3407  10.3531  10.5011  10.5065  10.6977
    11.1973  11.4189  11.5017  11.5060  11.6297  11.6372  12.7221  12.7258
    14.5058  14.5148  14.7104  18.1085  20.5222  21.5251

          k = 0.3750 0.1250 0.3750 (   953 PWs)   bands (ev):

    -3.4710   5.0825   5.1519   6.4193   8.2052   9.1658   9.2066   9.5090
     9.5945   9.6565   9.8819   9.9694  10.0279  10.4247  10.5005  10.6627
    10.9351  11.4277  11.4510  11.5204  11.5983  11.7316  12.0532  12.7256
    13.8397  16.2938  16.7861  18.7050  20.1507  21.9016

          k =-0.1250 0.1250 0.3750 (   950 PWs)   bands (ev):

    -3.8342   5.0655   6.6509   6.6671   7.6551   8.7824   9.0655   9.3570
     9.3579   9.4099   9.8887  10.2089  10.2644  10.4719  10.5366  10.8111
    11.0988  11.3734  11.4472  11.5508  11.6323  11.7764  11.9530  12.2369
    15.0334  15.5318  17.2472  18.9154  20.4476  21.9166

          k = 0.3750 0.3750 0.3750 (   958 PWs)   bands (ev):

    -3.0959   4.9708   4.9748   5.0603   8.3544   9.1517   9.3492   9.3765
     9.8566   9.8700  10.0666  10.3407  10.3531  10.5011  10.5065  10.6977
    11.1973  11.4189  11.5017  11.5060  11.6297  11.6372  12.7221  12.7258
    14.5058  14.5148  14.7104  18.1085  20.5222  21.5251

          k =-0.1250 0.3750 0.3750 (   953 PWs)   bands (ev):

    -3.4706   5.0821   5.1517   6.4191   8.2050   9.1658   9.2059   9.5084
     9.5948   9.6558   9.8816   9.9695  10.0286  10.4252  10.5005  10.6628
    10.9354  11.4278  11.4510  11.5207  11.5986  11.7320  12.0538  12.7268
    13.8404  16.2930  16.7855  18.7041  20.1501  21.9005

          k = 0.3750-0.1250 0.1250 (   950 PWs)   bands (ev):

    -3.8324   5.0299   6.6367   6.7306   7.6751   8.7739   9.0914   9.3260
     9.3773   9.4214   9.8936  10.1670  10.2503  10.4736  10.5237  10.7893
    11.0829  11.3576  11.4630  11.5730  11.6313  11.7854  11.9609  12.2434
    15.0696  15.4843  17.2402  18.9244  20.4385  21.9154

          k =-0.1250-0.1250 0.1250 (   952 PWs)   bands (ev):

    -4.1955   5.9831   7.0481   7.0852   7.4774   8.8259   8.8343   8.8808
     8.9309   9.1581  10.1191  10.2585  10.2664  10.4650  10.4763  11.0144
    11.2652  11.4306  11.4462  11.7338  11.7346  11.8173  12.0147  12.0212
    14.4776  17.2066  17.2250  17.4490  21.0727  21.0806

          k = 0.3750-0.3750 0.1250 (   953 PWs)   bands (ev):

    -3.4689   5.0786   5.1217   6.4611   8.2095   9.1775   9.2083   9.5113
     9.5788   9.6630   9.8792   9.9731  10.0105  10.4025  10.5018  10.6630
    10.9490  11.4135  11.4399  11.5278  11.6139  11.7309  12.0593  12.7455
    13.8289  16.2892  16.7814  18.6817  20.1469  21.8924

          k =-0.1250-0.3750 0.1250 (   950 PWs)   bands (ev):

    -3.8321   5.0296   6.6365   6.7305   7.6745   8.7741   9.0910   9.3255
     9.3774   9.4210   9.8938  10.1677  10.2514  10.4733  10.5233  10.7892
    11.0827  11.3575  11.4629  11.5740  11.6312  11.7861  11.9610  12.2445
    15.0691  15.4839  17.2399  18.9242  20.4379  21.9148

     the Fermi energy is    14.4066 ev

     Writing output data file Cu2N.save

                                                                                

     bravais-lattice index     =            0
     lattice parameter (alat)  =       7.0055  a.u.
     unit-cell volume          =     343.7659 (a.u.)^3
     number of atoms/cell      =            5
     number of atomic types    =            2
     kinetic-energy cut-off    =      30.0000  Ry
     charge density cut-off    =     120.0000  Ry
     convergence threshold     =      1.0E-14
     beta                      =       0.7000
     number of iterations used =            4
     Exchange-correlation      =  SLA  PW   PBX  PBC ( 1  4  3  4 0 0)


     celldm(1)=    7.00550  celldm(2)=    0.00000  celldm(3)=    0.00000
     celldm(4)=    0.00000  celldm(5)=    0.00000  celldm(6)=    0.00000

     crystal axes: (cart. coord. in units of alat)
               a(1) = (  1.0000  0.0000  0.0000 )  
               a(2) = (  0.0000  0.9999  0.0000 )  
               a(3) = (  0.0000  0.0000  1.0000 )  

     reciprocal axes: (cart. coord. in units 2 pi/alat)
               b(1) = (  1.0000  0.0000  0.0000 )  
               b(2) = (  0.0000  1.0001  0.0000 )  
               b(3) = (  0.0000  0.0000  1.0000 )  


     Atoms inside the unit cell: 

     Cartesian axes

     site n.  atom      mass           positions (alat units)
        1     Cu  63.5460   tau(    1) = (    0.00000    0.00000    0.00000  )
        2     Cu  63.5460   tau(    2) = (    0.50000    0.49994    0.00000  )
        3     Cu  63.5460   tau(    3) = (    0.00000    0.49994    0.47492  )
        4     Cu  63.5460   tau(    4) = (    0.50000    0.00000    0.47479  )
        5     N   14.0070   tau(    5) = (    0.00000    0.49994    0.99764  )

     Computing dynamical matrix for 
                    q = (  -0.5000000   0.0000000   0.0000000 )

      5 Sym.Ops. (with q -> -q+G )


     G cutoff =  149.1761  (    514 G-vectors)     FFT grid: ( 25, 25, 25)

     number of k points=    32  gaussian smearing, width (Ry)=  0.0200

     PseudoPot. # 1 for Cu read from file:
     ../../pseudo/Cu.pbe-dn-kjpaw_psl.1.0.0.UPF
     MD5 check sum: cfffd1f38ee05704b3e17f46f1730a6f
     Pseudo is Projector augmented-wave + core cor, Zval = 11.0
     Generated using "atomic" code by A. Dal Corso  v.6.3
     Shape of augmentation charge: PSQ
     Using radial grid of 1199 points,  6 beta functions with: 
                l(1) =   0
                l(2) =   0
                l(3) =   1
                l(4) =   1
                l(5) =   2
                l(6) =   2
     Q(r) pseudized with 0 coefficients 


     PseudoPot. # 2 for  N read from file:
     ../../pseudo/N.pbe-n-kjpaw_psl.1.0.0.UPF
     MD5 check sum: 14c48229446f9f2d411169a3abcbc3fa
     Pseudo is Projector augmented-wave + core cor, Zval =  5.0
     Generated using "atomic" code by A. Dal Corso  v.6.3
     Shape of augmentation charge: PSQ
     Using radial grid of 1085 points,  4 beta functions with: 
                l(1) =   0
                l(2) =   0
                l(3) =   1
                l(4) =   1
     Q(r) pseudized with 0 coefficients 


     Mode symmetry, C_2v (mm2)  point group:


     Atomic displacements:
     There are  15 irreducible representations

     Representation     1      1 modes -A_1  D_1  S_1  To be done

     Representation     2      1 modes -A_1  D_1  S_1  To be done

     Representation     3      1 modes -A_1  D_1  S_1  To be done

     Representation     4      1 modes -A_1  D_1  S_1  To be done

     Representation     5      1 modes -A_1  D_1  S_1  To be done

     Representation     6      1 modes -A_2  D_2  S_2  To be done

     Representation     7      1 modes -A_2  D_2  S_2  To be done

     Representation     8      1 modes -B_1  D_3  S_3  To be done

     Representation     9      1 modes -B_1  D_3  S_3  To be done

     Representation    10      1 modes -B_1  D_3  S_3  To be done

     Representation    11      1 modes -B_1  D_3  S_3  To be done

     Representation    12      1 modes -B_1  D_3  S_3  To be done

     Representation    13      1 modes -B_2  D_4  S_4  To be done

     Representation    14      1 modes -B_2  D_4  S_4  To be done

     Representation    15      1 modes -B_2  D_4  S_4  To be done



     Alpha used in Ewald sum =   1.1000
     PHONON       :     1h16m CPU        3h16m WALL



     Representation #  1 mode #   1

     Self-consistent Calculation

      iter #   1 total cpu time : 11802.9 secs   av.it.:   8.5
      thresh= 1.000E-02 alpha_mix =  0.700 |ddv_scf|^2 =  2.415E-05

      iter #   2 total cpu time : 18760.4 secs   av.it.:  13.9
      thresh= 4.914E-04 alpha_mix =  0.700 |ddv_scf|^2 =  4.938E-05

      iter #   3 total cpu time : 18790.9 secs   av.it.:  12.9
      thresh= 7.027E-04 alpha_mix =  0.700 |ddv_scf|^2 =  1.673E-04

      iter #   4 total cpu time : 18815.8 secs   av.it.:  11.8
      thresh= 1.294E-03 alpha_mix =  0.700 |ddv_scf|^2 =  1.689E-06

      iter #   5 total cpu time : 18844.7 secs   av.it.:  13.9
      thresh= 1.299E-04 alpha_mix =  0.700 |ddv_scf|^2 =  8.525E-07

      iter #   6 total cpu time : 18875.1 secs   av.it.:  13.9
      thresh= 9.233E-05 alpha_mix =  0.700 |ddv_scf|^2 =  2.715E-07

      iter #   7 total cpu time : 18904.7 secs   av.it.:  13.8
      thresh= 5.211E-05 alpha_mix =  0.700 |ddv_scf|^2 =  6.094E-08

      iter #   8 total cpu time : 18929.5 secs   av.it.:  12.9
      thresh= 2.469E-05 alpha_mix =  0.700 |ddv_scf|^2 =  2.132E-08

      iter #   9 total cpu time : 18956.8 secs   av.it.:  11.9
      thresh= 1.460E-05 alpha_mix =  0.700 |ddv_scf|^2 =  9.167E-12

      iter #  10 total cpu time : 18987.9 secs   av.it.:  14.0
      thresh= 3.028E-07 alpha_mix =  0.700 |ddv_scf|^2 =  2.979E-12

      iter #  11 total cpu time : 19019.4 secs   av.it.:  13.9
      thresh= 1.726E-07 alpha_mix =  0.700 |ddv_scf|^2 =  3.656E-12

      iter #  12 total cpu time : 19048.3 secs   av.it.:  13.9
      thresh= 1.912E-07 alpha_mix =  0.700 |ddv_scf|^2 =  6.724E-13

      iter #  13 total cpu time : 19078.4 secs   av.it.:  14.1
      thresh= 8.200E-08 alpha_mix =  0.700 |ddv_scf|^2 =  3.596E-13

      iter #  14 total cpu time : 19105.3 secs   av.it.:  13.1
      thresh= 5.997E-08 alpha_mix =  0.700 |ddv_scf|^2 =  2.194E-15

     End of self-consistent calculation

     Convergence has been achieved 


     Representation #  2 mode #   2

     Self-consistent Calculation

      iter #   1 total cpu time : 19133.5 secs   av.it.:  10.0
      thresh= 1.000E-02 alpha_mix =  0.700 |ddv_scf|^2 =  2.201E-03

      iter #   2 total cpu time : 19163.4 secs   av.it.:  14.2
      thresh= 4.691E-03 alpha_mix =  0.700 |ddv_scf|^2 =  8.971E-02

      iter #   3 total cpu time : 19191.9 secs   av.it.:  12.9
      thresh= 1.000E-02 alpha_mix =  0.700 |ddv_scf|^2 =  3.504E-04

      iter #   4 total cpu time : 19218.0 secs   av.it.:  13.0
      thresh= 1.872E-03 alpha_mix =  0.700 |ddv_scf|^2 =  5.657E-05

      iter #   5 total cpu time : 19247.0 secs   av.it.:  12.8
      thresh= 7.521E-04 alpha_mix =  0.700 |ddv_scf|^2 =  7.331E-06

      iter #   6 total cpu time : 19273.3 secs   av.it.:  12.1
      thresh= 2.708E-04 alpha_mix =  0.700 |ddv_scf|^2 =  1.014E-07

      iter #   7 total cpu time : 19303.7 secs   av.it.:  14.0
      thresh= 3.184E-05 alpha_mix =  0.700 |ddv_scf|^2 =  6.147E-08

      iter #   8 total cpu time : 19332.5 secs   av.it.:  13.0
      thresh= 2.479E-05 alpha_mix =  0.700 |ddv_scf|^2 =  8.425E-09

      iter #   9 total cpu time : 19360.5 secs   av.it.:  12.8
      thresh= 9.179E-06 alpha_mix =  0.700 |ddv_scf|^2 =  7.293E-10

      iter #  10 total cpu time : 19386.4 secs   av.it.:  12.1
      thresh= 2.701E-06 alpha_mix =  0.700 |ddv_scf|^2 =  9.715E-12

      iter #  11 total cpu time : 19414.9 secs   av.it.:  12.1
      thresh= 3.117E-07 alpha_mix =  0.700 |ddv_scf|^2 =  8.573E-13

      iter #  12 total cpu time : 19445.0 secs   av.it.:  13.4
      thresh= 9.259E-08 alpha_mix =  0.700 |ddv_scf|^2 =  4.050E-14

      iter #  13 total cpu time : 19475.6 secs   av.it.:  14.0
      thresh= 2.012E-08 alpha_mix =  0.700 |ddv_scf|^2 =  2.775E-14

      iter #  14 total cpu time : 19505.2 secs   av.it.:  13.6
      thresh= 1.666E-08 alpha_mix =  0.700 |ddv_scf|^2 =  3.414E-15

     End of self-consistent calculation

     Convergence has been achieved 


     Representation #  3 mode #   3

     Self-consistent Calculation

      iter #   1 total cpu time : 19531.1 secs   av.it.:   8.5
      thresh= 1.000E-02 alpha_mix =  0.700 |ddv_scf|^2 =  2.086E-05

      iter #   2 total cpu time : 19559.0 secs   av.it.:  13.5
      thresh= 4.567E-04 alpha_mix =  0.700 |ddv_scf|^2 =  3.237E-06

      iter #   3 total cpu time : 19588.5 secs   av.it.:  14.8
      thresh= 1.799E-04 alpha_mix =  0.700 |ddv_scf|^2 =  4.801E-05

      iter #   4 total cpu time : 19616.6 secs   av.it.:  11.8
      thresh= 6.929E-04 alpha_mix =  0.700 |ddv_scf|^2 =  7.320E-07
-------------------------------------------------------
Primary job  terminated normally, but 1 process returned
a non-zero exit code.. Per user-direction, the job has been aborted.
-------------------------------------------------------
--------------------------------------------------------------------------
mpirun detected that one or more processes exited with non-zero status, thus causing
the job to be terminated. The first process to do so was:

  Process name: [[2239,1],2]
  Exit code:    2
--------------------------------------------------------------------------
