
     Program PWSCF v.6.0 (svn rev. 13079) starts on  5Jun2020 at 11:44:33 

     This program is part of the open-source Quantum ESPRESSO suite
     for quantum simulation of materials; please cite
         "P. Giannozzi et al., J. Phys.:Condens. Matter 21 395502 (2009);
          URL http://www.quantum-espresso.org", 
     in publications or presentations arising from this work. More details at
     http://www.quantum-espresso.org/quote

     Parallel version (MPI), running on     1 processors
     Waiting for input...
     Reading input from standard input

     Current dimensions of program PWSCF are:
     Max number of different atomic species (ntypx) = 10
     Max number of k-points (npk) =  40000
     Max angular momentum in pseudopotentials (lmaxx) =  3
               file Cu.pbe-dn-kjpaw_psl.1.0.0.UPF: wavefunction(s)  4S 3D renormalized
               file N.pbe-n-kjpaw_psl.1.0.0.UPF: wavefunction(s)  2S renormalized

     Subspace diagonalization in iterative solution of the eigenvalue problem:
     a serial algorithm will be used


     G-vector sticks info
     --------------------
     sticks:   dense  smooth     PW     G-vecs:    dense   smooth      PW
     Sum         481     481    145                 8755     8755    1471



     bravais-lattice index     =            0
     lattice parameter (alat)  =       7.0298  a.u.
     unit-cell volume          =     392.2218 (a.u.)^3
     number of atoms/cell      =            5
     number of atomic types    =            2
     number of electrons       =        49.00
     number of Kohn-Sham states=           30
     kinetic-energy cutoff     =      30.0000  Ry
     charge density cutoff     =     120.0000  Ry
     convergence threshold     =      1.0E-10
     mixing beta               =       0.7000
     number of iterations used =            8  plain     mixing
     Exchange-correlation      =  SLA  PW   PBX  PBC ( 1  4  3  4 0 0)
     nstep                     =           50


     celldm(1)=   7.029781  celldm(2)=   0.000000  celldm(3)=   0.000000
     celldm(4)=   0.000000  celldm(5)=   0.000000  celldm(6)=   0.000000

     crystal axes: (cart. coord. in units of alat)
               a(1) = (   1.000000   0.000000   0.000000 )  
               a(2) = (   0.000000   1.000000   0.000000 )  
               a(3) = (   0.000000   0.000000   1.129032 )  

     reciprocal axes: (cart. coord. in units 2 pi/alat)
               b(1) = (  1.000000  0.000000  0.000000 )  
               b(2) = (  0.000000  1.000000  0.000000 )  
               b(3) = (  0.000000  0.000000  0.885714 )  


     PseudoPot. # 1 for Cu read from file:
     ../pseudo/Cu.pbe-dn-kjpaw_psl.1.0.0.UPF
     MD5 check sum: cfffd1f38ee05704b3e17f46f1730a6f
     Pseudo is Projector augmented-wave + core cor, Zval = 11.0
     Generated using "atomic" code by A. Dal Corso  v.6.3
     Shape of augmentation charge: PSQ
     Using radial grid of 1199 points,  6 beta functions with: 
                l(1) =   0
                l(2) =   0
                l(3) =   1
                l(4) =   1
                l(5) =   2
                l(6) =   2
     Q(r) pseudized with 0 coefficients 


     PseudoPot. # 2 for  N read from file:
     ../pseudo/N.pbe-n-kjpaw_psl.1.0.0.UPF
     MD5 check sum: 14c48229446f9f2d411169a3abcbc3fa
     Pseudo is Projector augmented-wave + core cor, Zval =  5.0
     Generated using "atomic" code by A. Dal Corso  v.6.3
     Shape of augmentation charge: PSQ
     Using radial grid of 1085 points,  4 beta functions with: 
                l(1) =   0
                l(2) =   0
                l(3) =   1
                l(4) =   1
     Q(r) pseudized with 0 coefficients 


     atomic species   valence    mass     pseudopotential
        Cu            11.00    63.54600     Cu( 1.00)
        N              5.00    14.00700      N( 1.00)

     Starting magnetic structure 
     atomic species   magnetization
        Cu           0.000
        N            0.000

      4 Sym. Ops. (no inversion) found
          (note:  4 additional sym.ops. were found but ignored
           their fractional translations are incommensurate with FFT grid)


   Cartesian axes

     site n.     atom                  positions (alat units)
         1           Cu  tau(   1) = (   0.0000000   0.0000000   0.0000000  )
         2           Cu  tau(   2) = (   0.5000000   0.5000000   0.0000000  )
         3           Cu  tau(   3) = (   0.0000000   0.5000000   0.5000000  )
         4           Cu  tau(   4) = (   0.5000000   0.0000000   0.5000000  )
         5           N   tau(   5) = (   0.0000000   0.5000000   1.0000000  )

     number of k points=     8  gaussian smearing, width (Ry)=  0.0200
                       cart. coord. in units 2pi/alat
        k(    1) = (   0.1250000   0.1250000   0.1107143), wk =   0.1250000
        k(    2) = (   0.1250000   0.1250000   0.3321429), wk =   0.1250000
        k(    3) = (   0.1250000   0.3750000   0.1107143), wk =   0.1250000
        k(    4) = (   0.1250000   0.3750000   0.3321429), wk =   0.1250000
        k(    5) = (   0.3750000   0.3750000   0.1107143), wk =   0.1250000
        k(    6) = (   0.3750000   0.3750000   0.3321429), wk =   0.1250000
        k(    7) = (   0.3750000   0.1250000  -0.1107143), wk =   0.1250000
        k(    8) = (   0.3750000   0.1250000  -0.3321429), wk =   0.1250000

     Dense  grid:     8755 G-vectors     FFT dimensions: (  25,  25,  27)

     Estimated max dynamical RAM per process >      22.37Mb
     Generating pointlists ...
     new r_m :   0.2063 (alat units)  1.4499 (a.u.) for type    1
     new r_m :   0.2063 (alat units)  1.4499 (a.u.) for type    2

     Check: negative/imaginary core charge=   -0.000087    0.000000

     Initial potential from superposition of free atoms

     starting charge   48.99908, renormalised to   49.00000
     Starting wfc are   40 randomized atomic wfcs
     Checking if some PAW data can be deallocated... 

     total cpu time spent up to now is        4.9 secs

     per-process dynamical memory:    26.2 Mb

     Self-consistent Calculation

     iteration #  1     ecut=    30.00 Ry     beta=0.70
     Davidson diagonalization with overlap
     ethr =  1.00E-02,  avg # of iterations =  2.8

     total cpu time spent up to now is        8.5 secs

     total energy              =    -879.92025578 Ry
     Harris-Foulkes estimate   =    -880.51288585 Ry
     estimated scf accuracy    <       0.72145295 Ry

     total magnetization       =     0.01 Bohr mag/cell
     absolute magnetization    =     0.02 Bohr mag/cell

     iteration #  2     ecut=    30.00 Ry     beta=0.70
     Davidson diagonalization with overlap
     ethr =  1.47E-03,  avg # of iterations =  3.2

     total cpu time spent up to now is       12.5 secs

     total energy              =    -879.87638927 Ry
     Harris-Foulkes estimate   =    -881.06279021 Ry
     estimated scf accuracy    <       3.21560151 Ry

     total magnetization       =     0.00 Bohr mag/cell
     absolute magnetization    =     0.00 Bohr mag/cell

     iteration #  3     ecut=    30.00 Ry     beta=0.70
     Davidson diagonalization with overlap
     ethr =  1.47E-03,  avg # of iterations =  2.5

     total cpu time spent up to now is       16.5 secs

     total energy              =    -880.37133125 Ry
     Harris-Foulkes estimate   =    -880.37587860 Ry
     estimated scf accuracy    <       0.00908017 Ry

     total magnetization       =     0.00 Bohr mag/cell
     absolute magnetization    =     0.01 Bohr mag/cell

     iteration #  4     ecut=    30.00 Ry     beta=0.70
     Davidson diagonalization with overlap
     ethr =  1.85E-05,  avg # of iterations =  2.6

     total cpu time spent up to now is       20.5 secs

     total energy              =    -880.37049814 Ry
     Harris-Foulkes estimate   =    -880.37541709 Ry
     estimated scf accuracy    <       0.01399672 Ry

     total magnetization       =     0.00 Bohr mag/cell
     absolute magnetization    =     0.00 Bohr mag/cell

     iteration #  5     ecut=    30.00 Ry     beta=0.70
     Davidson diagonalization with overlap
     ethr =  1.85E-05,  avg # of iterations =  2.0

     total cpu time spent up to now is       24.3 secs

     total energy              =    -880.37276306 Ry
     Harris-Foulkes estimate   =    -880.37404863 Ry
     estimated scf accuracy    <       0.00438198 Ry

     total magnetization       =     0.00 Bohr mag/cell
     absolute magnetization    =     0.00 Bohr mag/cell

     iteration #  6     ecut=    30.00 Ry     beta=0.70
     Davidson diagonalization with overlap
     ethr =  8.94E-06,  avg # of iterations =  2.0

     total cpu time spent up to now is       27.9 secs

     total energy              =    -880.37309255 Ry
     Harris-Foulkes estimate   =    -880.37372077 Ry
     estimated scf accuracy    <       0.00180338 Ry

     total magnetization       =     0.00 Bohr mag/cell
     absolute magnetization    =     0.00 Bohr mag/cell

     iteration #  7     ecut=    30.00 Ry     beta=0.70
     Davidson diagonalization with overlap
     ethr =  3.68E-06,  avg # of iterations =  2.0

     total cpu time spent up to now is       31.3 secs

     total energy              =    -880.37340005 Ry
     Harris-Foulkes estimate   =    -880.37352907 Ry
     estimated scf accuracy    <       0.00047023 Ry

     total magnetization       =     0.00 Bohr mag/cell
     absolute magnetization    =     0.00 Bohr mag/cell

     iteration #  8     ecut=    30.00 Ry     beta=0.70
     Davidson diagonalization with overlap
     ethr =  9.60E-07,  avg # of iterations =  2.0

     total cpu time spent up to now is       34.6 secs

     total energy              =    -880.37344841 Ry
     Harris-Foulkes estimate   =    -880.37345687 Ry
     estimated scf accuracy    <       0.00002977 Ry

     total magnetization       =     0.00 Bohr mag/cell
     absolute magnetization    =     0.00 Bohr mag/cell

     iteration #  9     ecut=    30.00 Ry     beta=0.70
     Davidson diagonalization with overlap
     ethr =  6.08E-08,  avg # of iterations =  2.4

     total cpu time spent up to now is       37.8 secs

     total energy              =    -880.37345088 Ry
     Harris-Foulkes estimate   =    -880.37345222 Ry
     estimated scf accuracy    <       0.00000405 Ry

     total magnetization       =     0.00 Bohr mag/cell
     absolute magnetization    =     0.00 Bohr mag/cell

     iteration # 10     ecut=    30.00 Ry     beta=0.70
     Davidson diagonalization with overlap
     ethr =  8.26E-09,  avg # of iterations =  2.3

     total cpu time spent up to now is       41.2 secs

     total energy              =    -880.37345152 Ry
     Harris-Foulkes estimate   =    -880.37345167 Ry
     estimated scf accuracy    <       0.00000044 Ry

     total magnetization       =     0.00 Bohr mag/cell
     absolute magnetization    =     0.00 Bohr mag/cell

     iteration # 11     ecut=    30.00 Ry     beta=0.70
     Davidson diagonalization with overlap
     ethr =  8.96E-10,  avg # of iterations =  2.1

     total cpu time spent up to now is       44.6 secs

     total energy              =    -880.37345162 Ry
     Harris-Foulkes estimate   =    -880.37345164 Ry
     estimated scf accuracy    <       0.00000012 Ry

     total magnetization       =     0.00 Bohr mag/cell
     absolute magnetization    =     0.00 Bohr mag/cell

     iteration # 12     ecut=    30.00 Ry     beta=0.70
     Davidson diagonalization with overlap
     ethr =  2.53E-10,  avg # of iterations =  1.1

     total cpu time spent up to now is       47.8 secs

     total energy              =    -880.37345163 Ry
     Harris-Foulkes estimate   =    -880.37345163 Ry
     estimated scf accuracy    <          2.3E-09 Ry

     total magnetization       =     0.00 Bohr mag/cell
     absolute magnetization    =     0.00 Bohr mag/cell

     iteration # 13     ecut=    30.00 Ry     beta=0.70
     Davidson diagonalization with overlap
     ethr =  4.65E-12,  avg # of iterations =  3.0

     total cpu time spent up to now is       51.6 secs

     total energy              =    -880.37345164 Ry
     Harris-Foulkes estimate   =    -880.37345164 Ry
     estimated scf accuracy    <          3.5E-09 Ry

     total magnetization       =     0.00 Bohr mag/cell
     absolute magnetization    =     0.00 Bohr mag/cell

     iteration # 14     ecut=    30.00 Ry     beta=0.70
     Davidson diagonalization with overlap
     ethr =  4.65E-12,  avg # of iterations =  2.1

     total cpu time spent up to now is       55.0 secs

     total energy              =    -880.37345164 Ry
     Harris-Foulkes estimate   =    -880.37345164 Ry
     estimated scf accuracy    <          2.8E-10 Ry

     total magnetization       =     0.00 Bohr mag/cell
     absolute magnetization    =     0.00 Bohr mag/cell

     iteration # 15     ecut=    30.00 Ry     beta=0.70
     Davidson diagonalization with overlap
     ethr =  5.62E-13,  avg # of iterations =  2.0

     Magnetic moment per site:
     atom:    1    charge:    8.3628    magn:    0.0000    constr:    0.0000
     atom:    2    charge:    8.3590    magn:    0.0000    constr:    0.0000
     atom:    3    charge:    8.3571    magn:    0.0000    constr:    0.0000
     atom:    4    charge:    8.3875    magn:    0.0000    constr:    0.0000
     atom:    5    charge:    3.9208    magn:    0.0000    constr:    0.0000

     total cpu time spent up to now is       58.3 secs

     End of self-consistent calculation

 ------ SPIN UP ------------


          k = 0.1250 0.1250 0.1107 (  1079 PWs)   bands (ev):

    -4.9100   4.4292   5.2152   5.6965   6.1990   7.0844   7.1875   7.2231
     7.5832   7.7616   8.1759   8.4326   8.4818   8.6854   8.7332   9.0409
     9.2041   9.2903   9.4598   9.5055   9.6299   9.7207   9.9108   9.9404
    11.5063  14.1534  15.2590  15.3172  17.5812  18.7622

          k = 0.1250 0.1250 0.3321 (  1088 PWs)   bands (ev):

    -4.7418   3.6727   5.4473   5.5895   6.1162   7.0731   7.2985   7.5034
     7.6504   7.6719   8.0099   8.3660   8.5102   8.5624   8.5870   8.9072
     9.1590   9.2499   9.4128   9.4820   9.5500   9.6921   9.9589  10.3965
    12.2984  13.2422  14.8514  15.9634  18.0445  19.4732

          k = 0.1250 0.3750 0.1107 (  1088 PWs)   bands (ev):

    -4.6076   4.0397   5.1213   5.6166   6.3638   7.1829   7.4330   7.5697
     7.6445   7.7354   8.1500   8.2510   8.4659   8.4973   8.6311   8.7963
     8.9633   9.1590   9.3207   9.3912   9.4908   9.6382   9.8512  10.4835
    11.7672  12.7811  14.7662  16.2835  17.4350  19.0653

          k = 0.1250 0.3750 0.3321 (  1085 PWs)   bands (ev):

    -4.4514   3.9736   4.4404   5.4171   6.5367   7.4239   7.5232   7.6306
     7.7822   7.9058   8.0885   8.2207   8.3346   8.5092   8.5715   8.6679
     8.9318   9.2102   9.2942   9.4102   9.4469   9.6115   9.7831  10.7795
    11.2242  13.4705  14.2537  16.1615  17.2319  19.2333

          k = 0.3750 0.3750 0.1107 (  1087 PWs)   bands (ev):

    -4.3182   4.1091   4.3104   5.5849   6.7293   7.4828   7.5296   7.6829
     7.7868   7.9317   8.0828   8.1390   8.2141   8.5253   8.5443   8.7597
     8.7760   9.0009   9.3351   9.3691   9.5133   9.5932  10.0582  10.4838
    11.7842  12.7443  13.6580  15.5443  16.9897  19.1022

          k = 0.3750 0.3750 0.3321 (  1097 PWs)   bands (ev):

    -4.1676   3.9559   4.2285   4.6954   6.7197   7.4714   7.6139   7.6958
     7.9840   8.0990   8.2648   8.3708   8.4666   8.5041   8.6703   8.7771
     9.1231   9.1575   9.3935   9.3938   9.4983   9.5055  10.2886  10.4307
    11.7444  11.9938  12.4571  15.0401  16.9314  18.3214

          k = 0.3750 0.1250-0.1107 (  1088 PWs)   bands (ev):

    -4.6076   4.0392   5.1215   5.6168   6.3637   7.1828   7.4333   7.5697
     7.6445   7.7354   8.1500   8.2508   8.4659   8.4973   8.6311   8.7964
     8.9634   9.1589   9.3207   9.3912   9.4907   9.6380   9.8511  10.4837
    11.7671  12.7810  14.7662  16.2836  17.4349  19.0653

          k = 0.3750 0.1250-0.3321 (  1085 PWs)   bands (ev):

    -4.4513   3.9733   4.4401   5.4176   6.5368   7.4238   7.5233   7.6309
     7.7822   7.9059   8.0883   8.2206   8.3346   8.5092   8.5714   8.6678
     8.9319   9.2101   9.2941   9.4101   9.4468   9.6114   9.7830  10.7799
    11.2243  13.4704  14.2536  16.1614  17.2319  19.2334

 ------ SPIN DOWN ----------


          k = 0.1250 0.1250 0.1107 (  1079 PWs)   bands (ev):

    -4.9100   4.4293   5.2153   5.6965   6.1990   7.0844   7.1875   7.2231
     7.5832   7.7616   8.1759   8.4326   8.4818   8.6854   8.7332   9.0409
     9.2041   9.2903   9.4598   9.5055   9.6299   9.7207   9.9108   9.9404
    11.5063  14.1534  15.2590  15.3172  17.5812  18.7622

          k = 0.1250 0.1250 0.3321 (  1088 PWs)   bands (ev):

    -4.7418   3.6727   5.4473   5.5895   6.1162   7.0731   7.2985   7.5034
     7.6504   7.6719   8.0099   8.3660   8.5102   8.5624   8.5870   8.9072
     9.1590   9.2499   9.4128   9.4820   9.5500   9.6921   9.9589  10.3965
    12.2985  13.2422  14.8514  15.9635  18.0445  19.4732

          k = 0.1250 0.3750 0.1107 (  1088 PWs)   bands (ev):

    -4.6076   4.0397   5.1213   5.6166   6.3638   7.1829   7.4330   7.5697
     7.6445   7.7354   8.1500   8.2510   8.4659   8.4973   8.6311   8.7963
     8.9633   9.1590   9.3207   9.3912   9.4908   9.6382   9.8512  10.4835
    11.7672  12.7811  14.7662  16.2835  17.4350  19.0653

          k = 0.1250 0.3750 0.3321 (  1085 PWs)   bands (ev):

    -4.4514   3.9736   4.4404   5.4171   6.5368   7.4239   7.5232   7.6306
     7.7822   7.9059   8.0885   8.2207   8.3347   8.5092   8.5715   8.6679
     8.9318   9.2102   9.2942   9.4102   9.4470   9.6115   9.7832  10.7795
    11.2242  13.4706  14.2537  16.1615  17.2319  19.2333

          k = 0.3750 0.3750 0.1107 (  1087 PWs)   bands (ev):

    -4.3182   4.1091   4.3104   5.5849   6.7293   7.4828   7.5296   7.6829
     7.7868   7.9317   8.0828   8.1390   8.2141   8.5253   8.5443   8.7597
     8.7760   9.0009   9.3351   9.3691   9.5133   9.5932  10.0582  10.4839
    11.7843  12.7444  13.6580  15.5443  16.9897  19.1022

          k = 0.3750 0.3750 0.3321 (  1097 PWs)   bands (ev):

    -4.1675   3.9559   4.2285   4.6954   6.7197   7.4714   7.6139   7.6958
     7.9840   8.0990   8.2648   8.3708   8.4666   8.5041   8.6703   8.7771
     9.1231   9.1575   9.3935   9.3938   9.4983   9.5055  10.2886  10.4307
    11.7444  11.9938  12.4571  15.0402  16.9314  18.3214

          k = 0.3750 0.1250-0.1107 (  1088 PWs)   bands (ev):

    -4.6076   4.0392   5.1215   5.6168   6.3637   7.1828   7.4333   7.5697
     7.6445   7.7354   8.1500   8.2508   8.4659   8.4973   8.6311   8.7965
     8.9634   9.1589   9.3207   9.3912   9.4907   9.6380   9.8511  10.4837
    11.7671  12.7810  14.7662  16.2836  17.4349  19.0653

          k = 0.3750 0.1250-0.3321 (  1085 PWs)   bands (ev):

    -4.4513   3.9733   4.4401   5.4176   6.5368   7.4238   7.5233   7.6310
     7.7822   7.9059   8.0883   8.2206   8.3346   8.5092   8.5714   8.6679
     8.9319   9.2101   9.2941   9.4101   9.4468   9.6115   9.7830  10.7800
    11.2243  13.4704  14.2537  16.1614  17.2320  19.2334

     the Fermi energy is    11.6628 ev

!    total energy              =    -880.37345164 Ry
     Harris-Foulkes estimate   =    -880.37345164 Ry
     estimated scf accuracy    <          4.4E-11 Ry

     total all-electron energy =    -13349.191314 Ry

     The total energy is the sum of the following terms:

     one-electron contribution =    -137.33907000 Ry
     hartree contribution      =     136.58967078 Ry
     xc contribution           =    -184.11247290 Ry
     ewald contribution        =    -328.18043059 Ry
     one-center paw contrib.   =    -367.32471760 Ry
     smearing contrib. (-TS)   =      -0.00643132 Ry

     total magnetization       =     0.00 Bohr mag/cell
     absolute magnetization    =     0.00 Bohr mag/cell

     convergence has been achieved in  15 iterations

     Forces acting on atoms (Ry/au):

     atom    1 type  1   force =     0.00000000    0.00000000   -0.01194799
     atom    2 type  1   force =     0.00000000    0.00000000   -0.01199599
     atom    3 type  1   force =     0.00000000    0.00000000   -0.02115873
     atom    4 type  1   force =     0.00000000    0.00000000    0.00174190
     atom    5 type  2   force =     0.00000000    0.00000000    0.04336082

     Total force =     0.051162     Total SCF correction =     0.000006


     entering subroutine stress ...

          total   stress  (Ry/bohr**3)                   (kbar)     P= -204.59
  -0.00130913   0.00000000   0.00000000       -192.58      0.00      0.00
   0.00000000  -0.00130935   0.00000000          0.00   -192.61      0.00
   0.00000000   0.00000000  -0.00155384          0.00      0.00   -228.58


     BFGS Geometry Optimization

     number of scf cycles    =   1
     number of bfgs steps    =   0

     enthalpy new            =    -880.3734516357 Ry

     new trust radius        =       0.1538654663 bohr
     new conv_thr            =            1.0E-10 Ry

     new unit-cell volume =    352.71129 a.u.^3 (    52.26642 Ang^3 )

CELL_PARAMETERS (angstrom)
   3.598251185   0.000000000   0.000000000
   0.000000000   3.598230405   0.000000000
   0.000000000   0.000000000   4.036847186

ATOMIC_POSITIONS (angstrom)
Cu       0.000000000   0.000000000  -0.006076998
Cu       1.799125592   1.799115202  -0.006101412
Cu       0.000000000   1.799115202   1.776984839
Cu       1.799125592   0.000000000   1.788632576
N        0.000000000   1.799115202   3.597547439



     Writing output data file Cu2N.save
     NEW-OLD atomic charge density approx. for the potential

     Check: negative/imaginary core charge=   -0.000042    0.000000
     extrapolated charge   43.51115, renormalised to   49.00000

     total cpu time spent up to now is       68.5 secs

     per-process dynamical memory:    59.5 Mb

     Self-consistent Calculation

     iteration #  1     ecut=    30.00 Ry     beta=0.70
     Davidson diagonalization with overlap
     ethr =  1.00E-06,  avg # of iterations =  6.1

     total cpu time spent up to now is       74.8 secs

     total energy              =    -871.30148805 Ry
     Harris-Foulkes estimate   =    -899.79342786 Ry
     estimated scf accuracy    <       8.04931482 Ry

     total magnetization       =     0.00 Bohr mag/cell
     absolute magnetization    =     0.00 Bohr mag/cell

     iteration #  2     ecut=    30.00 Ry     beta=0.70
     Davidson diagonalization with overlap
     ethr =  1.00E-02,  avg # of iterations =  3.1

     total cpu time spent up to now is       79.2 secs

     total energy              =    -872.84049961 Ry
     Harris-Foulkes estimate   =    -895.59999068 Ry
     estimated scf accuracy    <      84.08771435 Ry

     total magnetization       =     0.00 Bohr mag/cell
     absolute magnetization    =     0.00 Bohr mag/cell

     iteration #  3     ecut=    30.00 Ry     beta=0.70
     Davidson diagonalization with overlap
     ethr =  1.00E-02,  avg # of iterations =  3.0

     total cpu time spent up to now is       83.4 secs

     total energy              =    -879.57352919 Ry
     Harris-Foulkes estimate   =    -882.22061919 Ry
     estimated scf accuracy    <      20.88847369 Ry

     total magnetization       =     0.00 Bohr mag/cell
     absolute magnetization    =     0.00 Bohr mag/cell

     iteration #  4     ecut=    30.00 Ry     beta=0.70
     Davidson diagonalization with overlap
     ethr =  1.00E-02,  avg # of iterations =  2.0

     total cpu time spent up to now is       86.7 secs

     total energy              =    -880.61899234 Ry
     Harris-Foulkes estimate   =    -881.09497439 Ry
     estimated scf accuracy    <       3.30260090 Ry

     total magnetization       =     0.00 Bohr mag/cell
     absolute magnetization    =     0.00 Bohr mag/cell

     iteration #  5     ecut=    30.00 Ry     beta=0.70
     Davidson diagonalization with overlap
     ethr =  6.74E-03,  avg # of iterations =  1.0

     total cpu time spent up to now is       89.8 secs

     total energy              =    -880.61325134 Ry
     Harris-Foulkes estimate   =    -880.78079112 Ry
     estimated scf accuracy    <       2.05932733 Ry

     total magnetization       =     0.00 Bohr mag/cell
     absolute magnetization    =     0.00 Bohr mag/cell

     iteration #  6     ecut=    30.00 Ry     beta=0.70
     Davidson diagonalization with overlap
     ethr =  4.20E-03,  avg # of iterations =  1.0

     total cpu time spent up to now is       93.0 secs

     total energy              =    -880.47739217 Ry
     Harris-Foulkes estimate   =    -880.66018095 Ry
     estimated scf accuracy    <       1.35918776 Ry

     total magnetization       =     0.00 Bohr mag/cell
     absolute magnetization    =     0.00 Bohr mag/cell

     iteration #  7     ecut=    30.00 Ry     beta=0.70
     Davidson diagonalization with overlap
     ethr =  2.77E-03,  avg # of iterations =  1.0

     total cpu time spent up to now is       96.2 secs

     total energy              =    -880.42849714 Ry
     Harris-Foulkes estimate   =    -880.50569968 Ry
     estimated scf accuracy    <       0.58020852 Ry

     total magnetization       =     0.00 Bohr mag/cell
     absolute magnetization    =     0.00 Bohr mag/cell

     iteration #  8     ecut=    30.00 Ry     beta=0.70
     Davidson diagonalization with overlap
     ethr =  1.18E-03,  avg # of iterations =  1.0

     total cpu time spent up to now is       99.5 secs

     total energy              =    -880.40460947 Ry
     Harris-Foulkes estimate   =    -880.44013816 Ry
     estimated scf accuracy    <       0.25618249 Ry

     total magnetization       =     0.00 Bohr mag/cell
     absolute magnetization    =     0.00 Bohr mag/cell

     iteration #  9     ecut=    30.00 Ry     beta=0.70
     Davidson diagonalization with overlap
     ethr =  5.23E-04,  avg # of iterations =  1.0

     total cpu time spent up to now is      102.9 secs

     total energy              =    -880.37863654 Ry
     Harris-Foulkes estimate   =    -880.41020196 Ry
     estimated scf accuracy    <       0.10840921 Ry

     total magnetization       =     0.00 Bohr mag/cell
     absolute magnetization    =     0.00 Bohr mag/cell

     iteration # 10     ecut=    30.00 Ry     beta=0.70
     Davidson diagonalization with overlap
     ethr =  2.21E-04,  avg # of iterations =  2.0

     total cpu time spent up to now is      106.3 secs

     total energy              =    -880.38785178 Ry
     Harris-Foulkes estimate   =    -880.38976846 Ry
     estimated scf accuracy    <       0.00544393 Ry

     total magnetization       =     0.00 Bohr mag/cell
     absolute magnetization    =     0.00 Bohr mag/cell

     iteration # 11     ecut=    30.00 Ry     beta=0.70
     Davidson diagonalization with overlap
     ethr =  1.11E-05,  avg # of iterations =  3.6

     total cpu time spent up to now is      110.2 secs

     total energy              =    -880.38897399 Ry
     Harris-Foulkes estimate   =    -880.38901851 Ry
     estimated scf accuracy    <       0.00009989 Ry

     total magnetization       =     0.00 Bohr mag/cell
     absolute magnetization    =     0.00 Bohr mag/cell

     iteration # 12     ecut=    30.00 Ry     beta=0.70
     Davidson diagonalization with overlap
     ethr =  2.04E-07,  avg # of iterations =  2.0

     total cpu time spent up to now is      113.9 secs

     total energy              =    -880.38899418 Ry
     Harris-Foulkes estimate   =    -880.38900423 Ry
     estimated scf accuracy    <       0.00002194 Ry

     total magnetization       =     0.00 Bohr mag/cell
     absolute magnetization    =     0.00 Bohr mag/cell

     iteration # 13     ecut=    30.00 Ry     beta=0.70
     Davidson diagonalization with overlap
     ethr =  4.48E-08,  avg # of iterations =  2.0

     total cpu time spent up to now is      117.6 secs

     total energy              =    -880.38899919 Ry
     Harris-Foulkes estimate   =    -880.38900099 Ry
     estimated scf accuracy    <       0.00000505 Ry

     total magnetization       =     0.00 Bohr mag/cell
     absolute magnetization    =     0.00 Bohr mag/cell

     iteration # 14     ecut=    30.00 Ry     beta=0.70
     Davidson diagonalization with overlap
     ethr =  1.03E-08,  avg # of iterations =  2.0

     total cpu time spent up to now is      121.2 secs

     total energy              =    -880.38899999 Ry
     Harris-Foulkes estimate   =    -880.38900000 Ry
     estimated scf accuracy    <       0.00000004 Ry

     total magnetization       =     0.00 Bohr mag/cell
     absolute magnetization    =     0.00 Bohr mag/cell

     iteration # 15     ecut=    30.00 Ry     beta=0.70
     Davidson diagonalization with overlap
     ethr =  8.99E-11,  avg # of iterations =  2.8

     total cpu time spent up to now is      124.9 secs

     total energy              =    -880.38900000 Ry
     Harris-Foulkes estimate   =    -880.38900000 Ry
     estimated scf accuracy    <          3.5E-09 Ry

     total magnetization       =     0.00 Bohr mag/cell
     absolute magnetization    =     0.00 Bohr mag/cell

     iteration # 16     ecut=    30.00 Ry     beta=0.70
     Davidson diagonalization with overlap
     ethr =  7.14E-12,  avg # of iterations =  2.0

     total cpu time spent up to now is      128.5 secs

     total energy              =    -880.38900000 Ry
     Harris-Foulkes estimate   =    -880.38900000 Ry
     estimated scf accuracy    <          2.3E-09 Ry

     total magnetization       =     0.00 Bohr mag/cell
     absolute magnetization    =     0.00 Bohr mag/cell

     iteration # 17     ecut=    30.00 Ry     beta=0.70
     Davidson diagonalization with overlap
     ethr =  4.71E-12,  avg # of iterations =  2.0

     total cpu time spent up to now is      132.1 secs

     total energy              =    -880.38900000 Ry
     Harris-Foulkes estimate   =    -880.38900000 Ry
     estimated scf accuracy    <          8.0E-10 Ry

     total magnetization       =     0.00 Bohr mag/cell
     absolute magnetization    =     0.00 Bohr mag/cell

     iteration # 18     ecut=    30.00 Ry     beta=0.70
     Davidson diagonalization with overlap
     ethr =  1.63E-12,  avg # of iterations =  2.0

     Magnetic moment per site:
     atom:    1    charge:    8.2029    magn:    0.0000    constr:    0.0000
     atom:    2    charge:    8.1992    magn:    0.0000    constr:    0.0000
     atom:    3    charge:    8.1958    magn:    0.0000    constr:    0.0000
     atom:    4    charge:    8.2241    magn:    0.0000    constr:    0.0000
     atom:    5    charge:    3.8297    magn:    0.0000    constr:    0.0000

     total cpu time spent up to now is      135.7 secs

     End of self-consistent calculation

 ------ SPIN UP ------------


          k = 0.1292 0.1292 0.1152 (  1079 PWs)   bands (ev):

    -3.9995   5.5702   6.3187   6.8400   7.4278   8.3711   8.4825   8.5352
     8.8828   9.0951   9.6894   9.9365   9.9998  10.2606  10.2820  10.6810
    10.8853  10.9862  11.1726  11.2297  11.3738  11.4739  11.6368  11.7433
    13.5995  16.1707  17.2819  17.4063  19.9186  21.1623

          k = 0.1292 0.1292 0.3456 (  1088 PWs)   bands (ev):

    -3.7830   4.7034   6.5783   6.7027   7.3272   8.3836   8.6063   8.8649
     9.0063   9.0428   9.4979   9.8816  10.0069  10.1081  10.1377  10.5040
    10.8168  10.9266  11.1188  11.1859  11.2952  11.4376  11.7242  12.1486
    14.3524  15.3726  16.8447  18.1613  20.4226  21.8019

          k = 0.1292 0.3877 0.1152 (  1088 PWs)   bands (ev):

    -3.6169   5.0410   6.1861   6.7193   7.5660   8.4980   8.7668   8.9241
     9.0107   9.1090   9.6139   9.7848  10.0149  10.0509  10.2028  10.4065
    10.6064  10.8388  11.0218  11.1017  11.2091  11.3902  11.5666  12.2777
    13.8515  14.8364  16.7637  18.4164  19.8095  21.4336

          k = 0.1292 0.3877 0.3456 (  1085 PWs)   bands (ev):

    -3.4128   4.9505   5.4150   6.4921   7.8003   8.7825   8.8636   8.9976
     9.1715   9.3223   9.5624   9.6955   9.8286  10.0535  10.1295  10.2496
    10.5578  10.8916  10.9897  11.1233  11.1658  11.3506  11.5499  12.5920
    13.1110  15.5674  16.3184  18.4217  19.5875  21.6173

          k = 0.3877 0.3877 0.1152 (  1087 PWs)   bands (ev):

    -3.2462   5.0634   5.2466   6.6139   7.9873   8.8432   8.9024   9.0985
     9.1604   9.3420   9.5592   9.6446   9.6863  10.0730  10.0866  10.3490
    10.4329  10.6589  11.0352  11.0718  11.2443  11.3246  11.8203  12.3328
    13.7132  14.7782  15.6588  17.8264  19.3107  21.4507

          k = 0.3877 0.3877 0.3456 (  1097 PWs)   bands (ev):

    -3.0458   4.8751   5.1457   5.6494   7.9949   8.8229   8.9834   9.1241
     9.4432   9.5608   9.7569   9.8834   9.9834  10.0143  10.2331  10.3010
    10.7846  10.8404  11.1043  11.1064  11.2213  11.2302  12.0869  12.2298
    13.7141  13.8284  14.3122  17.3020  19.3928  20.8243

          k = 0.3877 0.1292-0.1152 (  1088 PWs)   bands (ev):

    -3.6169   5.0406   6.1863   6.7194   7.5659   8.4979   8.7670   8.9240
     9.0106   9.1090   9.6139   9.7848  10.0150  10.0508  10.2028  10.4066
    10.6065  10.8388  11.0218  11.1017  11.2090  11.3901  11.5666  12.2779
    13.8514  14.8363  16.7637  18.4164  19.8095  21.4336

          k = 0.3877 0.1292-0.3456 (  1085 PWs)   bands (ev):

    -3.4127   4.9503   5.4147   6.4925   7.8003   8.7825   8.8635   8.9977
     9.1715   9.3222   9.5623   9.6955   9.8286  10.0536  10.1295  10.2496
    10.5580  10.8916  10.9895  11.1233  11.1657  11.3506  11.5498  12.5923
    13.1111  15.5673  16.3183  18.4217  19.5876  21.6174

 ------ SPIN DOWN ----------


          k = 0.1292 0.1292 0.1152 (  1079 PWs)   bands (ev):

    -3.9995   5.5702   6.3187   6.8400   7.4278   8.3711   8.4825   8.5352
     8.8828   9.0951   9.6894   9.9365   9.9998  10.2606  10.2820  10.6810
    10.8853  10.9862  11.1726  11.2297  11.3738  11.4739  11.6368  11.7433
    13.5995  16.1707  17.2819  17.4063  19.9186  21.1623

          k = 0.1292 0.1292 0.3456 (  1088 PWs)   bands (ev):

    -3.7830   4.7034   6.5783   6.7027   7.3272   8.3836   8.6063   8.8649
     9.0063   9.0428   9.4979   9.8816  10.0069  10.1081  10.1377  10.5040
    10.8168  10.9266  11.1188  11.1859  11.2952  11.4376  11.7242  12.1486
    14.3524  15.3726  16.8447  18.1613  20.4226  21.8019

          k = 0.1292 0.3877 0.1152 (  1088 PWs)   bands (ev):

    -3.6169   5.0410   6.1861   6.7193   7.5660   8.4980   8.7668   8.9241
     9.0107   9.1090   9.6139   9.7848  10.0149  10.0509  10.2028  10.4065
    10.6064  10.8388  11.0218  11.1017  11.2091  11.3902  11.5666  12.2777
    13.8515  14.8364  16.7637  18.4164  19.8095  21.4336

          k = 0.1292 0.3877 0.3456 (  1085 PWs)   bands (ev):

    -3.4128   4.9505   5.4150   6.4921   7.8003   8.7825   8.8636   8.9976
     9.1715   9.3223   9.5624   9.6955   9.8286  10.0535  10.1295  10.2496
    10.5578  10.8916  10.9897  11.1233  11.1658  11.3506  11.5499  12.5920
    13.1110  15.5674  16.3184  18.4217  19.5875  21.6173

          k = 0.3877 0.3877 0.1152 (  1087 PWs)   bands (ev):

    -3.2462   5.0634   5.2466   6.6139   7.9873   8.8432   8.9024   9.0985
     9.1604   9.3420   9.5592   9.6446   9.6863  10.0730  10.0866  10.3490
    10.4329  10.6589  11.0352  11.0718  11.2443  11.3246  11.8203  12.3328
    13.7132  14.7782  15.6588  17.8264  19.3107  21.4507

          k = 0.3877 0.3877 0.3456 (  1097 PWs)   bands (ev):

    -3.0458   4.8751   5.1457   5.6494   7.9949   8.8229   8.9834   9.1241
     9.4432   9.5608   9.7569   9.8834   9.9834  10.0143  10.2331  10.3010
    10.7846  10.8404  11.1043  11.1064  11.2213  11.2302  12.0869  12.2298
    13.7141  13.8284  14.3122  17.3020  19.3928  20.8243

          k = 0.3877 0.1292-0.1152 (  1088 PWs)   bands (ev):

    -3.6169   5.0406   6.1863   6.7194   7.5659   8.4979   8.7670   8.9240
     9.0106   9.1090   9.6139   9.7848  10.0150  10.0508  10.2028  10.4066
    10.6065  10.8388  11.0218  11.1017  11.2090  11.3901  11.5666  12.2779
    13.8514  14.8363  16.7637  18.4164  19.8095  21.4336

          k = 0.3877 0.1292-0.3456 (  1085 PWs)   bands (ev):

    -3.4127   4.9503   5.4147   6.4925   7.8003   8.7825   8.8635   8.9977
     9.1715   9.3222   9.5623   9.6955   9.8286  10.0536  10.1295  10.2496
    10.5580  10.8916  10.9895  11.1233  11.1657  11.3506  11.5498  12.5923
    13.1111  15.5673  16.3183  18.4217  19.5876  21.6174

     the Fermi energy is    13.6689 ev

!    total energy              =    -880.38900000 Ry
     Harris-Foulkes estimate   =    -880.38900000 Ry
     estimated scf accuracy    <          3.2E-11 Ry

     total all-electron energy =    -13349.206863 Ry

     The total energy is the sum of the following terms:

     one-electron contribution =    -118.81770056 Ry
     hartree contribution      =     130.27393292 Ry
     xc contribution           =    -184.46871864 Ry
     ewald contribution        =    -339.98289058 Ry
     one-center paw contrib.   =    -367.38670689 Ry
     smearing contrib. (-TS)   =      -0.00691623 Ry

     total magnetization       =     0.00 Bohr mag/cell
     absolute magnetization    =     0.00 Bohr mag/cell

     convergence has been achieved in  18 iterations

     Forces acting on atoms (Ry/au):

     atom    1 type  1   force =     0.00000000    0.00000000   -0.01878785
     atom    2 type  1   force =     0.00000000    0.00000000   -0.01882453
     atom    3 type  1   force =     0.00000000    0.00000000   -0.02317886
     atom    4 type  1   force =     0.00000000    0.00000000    0.01871490
     atom    5 type  2   force =     0.00000000    0.00000000    0.04207633

     Total force =     0.058011     Total SCF correction =     0.000005


     entering subroutine stress ...

          total   stress  (Ry/bohr**3)                   (kbar)     P=  123.52
   0.00105278   0.00000000   0.00000000        154.87      0.00      0.00
   0.00000000   0.00105259   0.00000000          0.00    154.84      0.00
   0.00000000   0.00000000   0.00041359          0.00      0.00     60.84


     number of scf cycles    =   2
     number of bfgs steps    =   1

     enthalpy old            =    -880.3734516357 Ry
     enthalpy new            =    -880.3889999985 Ry

     CASE: enthalpy_new < enthalpy_old

     new trust radius        =       0.0547697899 bohr
     new conv_thr            =            4.2E-11 Ry

     new unit-cell volume =    364.42778 a.u.^3 (    54.00262 Ang^3 )

CELL_PARAMETERS (angstrom)
   3.650718988   0.000000000   0.000000000
   0.000000000   3.650686031   0.000000000
   0.000000000   0.000000000   4.051930443

ATOMIC_POSITIONS (angstrom)
Cu       0.000000000   0.000000000  -0.012825841
Cu       1.825359494   1.825343015  -0.012864442
Cu       0.000000000   1.825343015   1.775075154
Cu       1.825359494   0.000000000   1.801618222
N        0.000000000   1.825343015   3.626702263



     Writing output data file Cu2N.save
     NEW-OLD atomic charge density approx. for the potential

     Check: negative/imaginary core charge=   -0.000054    0.000000
     extrapolated charge   50.57534, renormalised to   49.00000

     total cpu time spent up to now is      146.9 secs

     per-process dynamical memory:    59.5 Mb

     Self-consistent Calculation

     iteration #  1     ecut=    30.00 Ry     beta=0.70
     Davidson diagonalization with overlap
     ethr =  1.00E-06,  avg # of iterations =  5.0

     total cpu time spent up to now is      153.3 secs

     total energy              =    -878.27261532 Ry
     Harris-Foulkes estimate   =    -875.81689529 Ry
     estimated scf accuracy    <       1.94589054 Ry

     total magnetization       =     0.00 Bohr mag/cell
     absolute magnetization    =     0.00 Bohr mag/cell

     iteration #  2     ecut=    30.00 Ry     beta=0.70
     Davidson diagonalization with overlap
     ethr =  3.97E-03,  avg # of iterations =  2.8

     total cpu time spent up to now is      157.4 secs

     total energy              =    -880.01159264 Ry
     Harris-Foulkes estimate   =    -883.55731514 Ry
     estimated scf accuracy    <      10.17093045 Ry

     total magnetization       =     0.00 Bohr mag/cell
     absolute magnetization    =     0.00 Bohr mag/cell

     iteration #  3     ecut=    30.00 Ry     beta=0.70
     Davidson diagonalization with overlap
     ethr =  3.97E-03,  avg # of iterations =  2.0

     total cpu time spent up to now is      161.4 secs

     total energy              =    -880.56302202 Ry
     Harris-Foulkes estimate   =    -880.75221050 Ry
     estimated scf accuracy    <       1.48123487 Ry

     total magnetization       =     0.00 Bohr mag/cell
     absolute magnetization    =     0.00 Bohr mag/cell

     iteration #  4     ecut=    30.00 Ry     beta=0.70
     Davidson diagonalization with overlap
     ethr =  3.02E-03,  avg # of iterations =  1.0

     total cpu time spent up to now is      164.9 secs

     total energy              =    -880.48799126 Ry
     Harris-Foulkes estimate   =    -880.58439960 Ry
     estimated scf accuracy    <       0.82859605 Ry

     total magnetization       =     0.00 Bohr mag/cell
     absolute magnetization    =     0.00 Bohr mag/cell

     iteration #  5     ecut=    30.00 Ry     beta=0.70
     Davidson diagonalization with overlap
     ethr =  1.69E-03,  avg # of iterations =  1.0

     total cpu time spent up to now is      168.5 secs

     total energy              =    -880.47860779 Ry
     Harris-Foulkes estimate   =    -880.49830138 Ry
     estimated scf accuracy    <       0.45934158 Ry

     total magnetization       =     0.00 Bohr mag/cell
     absolute magnetization    =     0.00 Bohr mag/cell

     iteration #  6     ecut=    30.00 Ry     beta=0.70
     Davidson diagonalization with overlap
     ethr =  9.37E-04,  avg # of iterations =  1.0

     total cpu time spent up to now is      172.2 secs

     total energy              =    -880.38673803 Ry
     Harris-Foulkes estimate   =    -880.47961985 Ry
     estimated scf accuracy    <       0.37549950 Ry

     total magnetization       =     0.00 Bohr mag/cell
     absolute magnetization    =     0.00 Bohr mag/cell

     iteration #  7     ecut=    30.00 Ry     beta=0.70
     Davidson diagonalization with overlap
     ethr =  7.66E-04,  avg # of iterations =  1.0

     total cpu time spent up to now is      176.2 secs

     total energy              =    -880.40754134 Ry
     Harris-Foulkes estimate   =    -880.40926884 Ry
     estimated scf accuracy    <       0.06013211 Ry

     total magnetization       =     0.00 Bohr mag/cell
     absolute magnetization    =     0.00 Bohr mag/cell

     iteration #  8     ecut=    30.00 Ry     beta=0.70
     Davidson diagonalization with overlap
     ethr =  1.23E-04,  avg # of iterations =  1.0

     total cpu time spent up to now is      180.3 secs

     total energy              =    -880.40455734 Ry
     Harris-Foulkes estimate   =    -880.40809123 Ry
     estimated scf accuracy    <       0.05287310 Ry

     total magnetization       =     0.00 Bohr mag/cell
     absolute magnetization    =     0.00 Bohr mag/cell

     iteration #  9     ecut=    30.00 Ry     beta=0.70
     Davidson diagonalization with overlap
     ethr =  1.08E-04,  avg # of iterations =  1.0

     total cpu time spent up to now is      184.5 secs

     total energy              =    -880.40010008 Ry
     Harris-Foulkes estimate   =    -880.40496759 Ry
     estimated scf accuracy    <       0.03529130 Ry

     total magnetization       =     0.00 Bohr mag/cell
     absolute magnetization    =     0.00 Bohr mag/cell

     iteration # 10     ecut=    30.00 Ry     beta=0.70
     Davidson diagonalization with overlap
     ethr =  7.20E-05,  avg # of iterations =  1.0

     total cpu time spent up to now is      188.7 secs

     total energy              =    -880.39518967 Ry
     Harris-Foulkes estimate   =    -880.40084722 Ry
     estimated scf accuracy    <       0.01534947 Ry

     total magnetization       =     0.00 Bohr mag/cell
     absolute magnetization    =     0.00 Bohr mag/cell

     iteration # 11     ecut=    30.00 Ry     beta=0.70
     Davidson diagonalization with overlap
     ethr =  3.13E-05,  avg # of iterations =  2.0

     total cpu time spent up to now is      193.0 secs

     total energy              =    -880.39773359 Ry
     Harris-Foulkes estimate   =    -880.39773709 Ry
     estimated scf accuracy    <       0.00002359 Ry

     total magnetization       =     0.00 Bohr mag/cell
     absolute magnetization    =     0.00 Bohr mag/cell

     iteration # 12     ecut=    30.00 Ry     beta=0.70
     Davidson diagonalization with overlap
     ethr =  4.81E-08,  avg # of iterations =  3.8

     total cpu time spent up to now is      199.1 secs

     total energy              =    -880.39775758 Ry
     Harris-Foulkes estimate   =    -880.39776620 Ry
     estimated scf accuracy    <       0.00002776 Ry

     total magnetization       =     0.00 Bohr mag/cell
     absolute magnetization    =     0.00 Bohr mag/cell

     iteration # 13     ecut=    30.00 Ry     beta=0.70
     Davidson diagonalization with overlap
     ethr =  4.81E-08,  avg # of iterations =  2.0

     total cpu time spent up to now is      207.6 secs

     total energy              =    -880.39776020 Ry
     Harris-Foulkes estimate   =    -880.39776124 Ry
     estimated scf accuracy    <       0.00000479 Ry

     total magnetization       =     0.00 Bohr mag/cell
     absolute magnetization    =     0.00 Bohr mag/cell

     iteration # 14     ecut=    30.00 Ry     beta=0.70
     Davidson diagonalization with overlap
     ethr =  9.78E-09,  avg # of iterations =  1.0

     total cpu time spent up to now is      215.0 secs

     total energy              =    -880.39775985 Ry
     Harris-Foulkes estimate   =    -880.39776039 Ry
     estimated scf accuracy    <       0.00000289 Ry

     total magnetization       =     0.00 Bohr mag/cell
     absolute magnetization    =     0.00 Bohr mag/cell

     iteration # 15     ecut=    30.00 Ry     beta=0.70
     Davidson diagonalization with overlap
     ethr =  5.89E-09,  avg # of iterations =  1.0

     total cpu time spent up to now is      223.4 secs

     total energy              =    -880.39775977 Ry
     Harris-Foulkes estimate   =    -880.39775996 Ry
     estimated scf accuracy    <       0.00000137 Ry

     total magnetization       =     0.00 Bohr mag/cell
     absolute magnetization    =     0.00 Bohr mag/cell

     iteration # 16     ecut=    30.00 Ry     beta=0.70
     Davidson diagonalization with overlap
     ethr =  2.79E-09,  avg # of iterations =  1.0

     total cpu time spent up to now is      230.3 secs

     total energy              =    -880.39775956 Ry
     Harris-Foulkes estimate   =    -880.39775981 Ry
     estimated scf accuracy    <       0.00000077 Ry

     total magnetization       =     0.00 Bohr mag/cell
     absolute magnetization    =     0.00 Bohr mag/cell

     iteration # 17     ecut=    30.00 Ry     beta=0.70
     Davidson diagonalization with overlap
     ethr =  1.57E-09,  avg # of iterations =  1.1

     total cpu time spent up to now is      241.6 secs

     total energy              =    -880.39775958 Ry
     Harris-Foulkes estimate   =    -880.39775959 Ry
     estimated scf accuracy    <       0.00000006 Ry

     total magnetization       =     0.00 Bohr mag/cell
     absolute magnetization    =     0.00 Bohr mag/cell

     iteration # 18     ecut=    30.00 Ry     beta=0.70
     Davidson diagonalization with overlap
     ethr =  1.22E-10,  avg # of iterations =  2.9

     total cpu time spent up to now is      251.3 secs

     total energy              =    -880.39775958 Ry
     Harris-Foulkes estimate   =    -880.39775958 Ry
     estimated scf accuracy    <          1.4E-09 Ry

     total magnetization       =     0.00 Bohr mag/cell
     absolute magnetization    =     0.00 Bohr mag/cell

     iteration # 19     ecut=    30.00 Ry     beta=0.70
     Davidson diagonalization with overlap
     ethr =  2.84E-12,  avg # of iterations =  2.0

     total cpu time spent up to now is      263.0 secs

     total energy              =    -880.39775958 Ry
     Harris-Foulkes estimate   =    -880.39775958 Ry
     estimated scf accuracy    <          4.2E-10 Ry

     total magnetization       =     0.00 Bohr mag/cell
     absolute magnetization    =     0.00 Bohr mag/cell

     iteration # 20     ecut=    30.00 Ry     beta=0.70
     Davidson diagonalization with overlap
     ethr =  8.58E-13,  avg # of iterations =  2.0

     total cpu time spent up to now is      272.3 secs

     total energy              =    -880.39775958 Ry
     Harris-Foulkes estimate   =    -880.39775958 Ry
     estimated scf accuracy    <          9.8E-11 Ry

     total magnetization       =     0.00 Bohr mag/cell
     absolute magnetization    =     0.00 Bohr mag/cell

     iteration # 21     ecut=    30.00 Ry     beta=0.70
     Davidson diagonalization with overlap
     ethr =  1.99E-13,  avg # of iterations =  2.0

     Magnetic moment per site:
     atom:    1    charge:    8.2515    magn:    0.0000    constr:    0.0000
     atom:    2    charge:    8.2478    magn:   -0.0000    constr:    0.0000
     atom:    3    charge:    8.2440    magn:    0.0000    constr:    0.0000
     atom:    4    charge:    8.2741    magn:   -0.0000    constr:    0.0000
     atom:    5    charge:    3.8518    magn:   -0.0000    constr:    0.0000

     total cpu time spent up to now is      276.4 secs

     End of self-consistent calculation

 ------ SPIN UP ------------


          k = 0.1274 0.1274 0.1148 (  1079 PWs)   bands (ev):

    -4.3338   5.2311   6.0097   6.4923   7.0730   7.9833   8.0898   8.1282
     8.4154   8.6130   9.2396   9.4423   9.5032   9.7694   9.7785  10.1626
    10.3570  10.4659  10.6469  10.6778  10.8234  10.9112  11.0638  11.1663
    12.9841  15.5440  16.5720  16.6797  19.2099  20.3252

          k = 0.1274 0.1274 0.3443 (  1088 PWs)   bands (ev):

    -4.1231   4.4001   6.2261   6.3398   6.9659   7.9956   8.2074   8.4515
     8.5586   8.6067   9.0533   9.4171   9.5095   9.6194   9.6375   9.9885
    10.2818  10.4083  10.5773  10.6420  10.7471  10.8761  11.1413  11.5359
    13.6938  14.6697  16.1995  17.4922  19.5857  20.9981

          k = 0.1274 0.3821 0.1148 (  1088 PWs)   bands (ev):

    -3.9757   4.6884   5.8527   6.3568   7.1660   8.0896   8.3475   8.5042
     8.5847   8.6623   9.1473   9.3359   9.5335   9.5763   9.7067   9.9064
    10.1009  10.3262  10.5008  10.5725  10.6688  10.8435  10.9902  11.6515
    13.2686  14.1990  16.1172  17.7267  19.0333  20.6886

          k = 0.1274 0.3821 0.3443 (  1085 PWs)   bands (ev):

    -3.7758   4.6258   5.0543   6.1282   7.4150   8.3675   8.4384   8.5756
     8.7349   8.8788   9.1103   9.2277   9.3501   9.5712   9.6457   9.7605
    10.0469  10.3773  10.4691  10.5888  10.6252  10.7959  11.0036  11.9704
    12.5291  14.9386  15.6608  17.6564  18.8334  20.8189

          k = 0.3821 0.3821 0.1148 (  1087 PWs)   bands (ev):

    -3.6276   4.7227   4.8911   6.2177   7.5778   8.4220   8.4829   8.6839
     8.7219   8.8985   9.1064   9.1985   9.2116   9.5873   9.6023   9.8427
     9.9886  10.1441  10.5035  10.5376  10.7014  10.7786  11.2367  11.7274
    13.0832  14.2119  15.0784  17.1352  18.6035  20.6938

          k = 0.3821 0.3821 0.3443 (  1097 PWs)   bands (ev):

    -3.4306   4.5497   4.7970   5.2573   7.5985   8.3953   8.5540   8.6906
     9.0022   9.0999   9.2750   9.4217   9.5290   9.5434   9.7292   9.8291
    10.2895  10.3123  10.5706  10.5726  10.6791  10.6879  11.5410  11.6715
    13.1408  13.2475  13.6898  16.6155  18.6875  20.0120

          k = 0.3821 0.1274-0.1148 (  1088 PWs)   bands (ev):

    -3.9756   4.6880   5.8528   6.3570   7.1660   8.0896   8.3477   8.5042
     8.5846   8.6624   9.1473   9.3358   9.5335   9.5764   9.7067   9.9065
    10.1010  10.3262  10.5008  10.5724  10.6688  10.8433  10.9901  11.6517
    13.2686  14.1989  16.1172  17.7268  19.0333  20.6887

          k = 0.3821 0.1274-0.3443 (  1085 PWs)   bands (ev):

    -3.7758   4.6256   5.0540   6.1287   7.4150   8.3674   8.4384   8.5759
     8.7349   8.8788   9.1103   9.2277   9.3501   9.5713   9.6457   9.7605
    10.0470  10.3773  10.4690  10.5887  10.6251  10.7959  11.0035  11.9707
    12.5291  14.9386  15.6608  17.6565  18.8335  20.8189

 ------ SPIN DOWN ----------


          k = 0.1274 0.1274 0.1148 (  1079 PWs)   bands (ev):

    -4.3338   5.2311   6.0097   6.4923   7.0730   7.9833   8.0898   8.1282
     8.4154   8.6130   9.2396   9.4423   9.5032   9.7694   9.7785  10.1626
    10.3570  10.4659  10.6469  10.6778  10.8234  10.9112  11.0638  11.1663
    12.9841  15.5440  16.5720  16.6797  19.2099  20.3252

          k = 0.1274 0.1274 0.3443 (  1088 PWs)   bands (ev):

    -4.1231   4.4001   6.2261   6.3398   6.9659   7.9956   8.2074   8.4515
     8.5586   8.6067   9.0533   9.4171   9.5095   9.6194   9.6375   9.9885
    10.2818  10.4083  10.5773  10.6420  10.7471  10.8761  11.1413  11.5359
    13.6938  14.6697  16.1995  17.4922  19.5857  20.9981

          k = 0.1274 0.3821 0.1148 (  1088 PWs)   bands (ev):

    -3.9757   4.6884   5.8527   6.3568   7.1660   8.0896   8.3475   8.5042
     8.5847   8.6623   9.1473   9.3359   9.5335   9.5763   9.7067   9.9064
    10.1009  10.3262  10.5008  10.5725  10.6688  10.8435  10.9902  11.6515
    13.2686  14.1990  16.1172  17.7267  19.0333  20.6886

          k = 0.1274 0.3821 0.3443 (  1085 PWs)   bands (ev):

    -3.7758   4.6258   5.0543   6.1282   7.4150   8.3675   8.4384   8.5756
     8.7349   8.8788   9.1103   9.2277   9.3501   9.5712   9.6457   9.7605
    10.0469  10.3773  10.4691  10.5888  10.6252  10.7959  11.0036  11.9704
    12.5291  14.9386  15.6608  17.6564  18.8334  20.8189

          k = 0.3821 0.3821 0.1148 (  1087 PWs)   bands (ev):

    -3.6276   4.7227   4.8911   6.2177   7.5778   8.4220   8.4829   8.6839
     8.7219   8.8985   9.1064   9.1985   9.2116   9.5873   9.6023   9.8427
     9.9886  10.1441  10.5035  10.5376  10.7014  10.7786  11.2367  11.7274
    13.0832  14.2119  15.0784  17.1352  18.6035  20.6938

          k = 0.3821 0.3821 0.3443 (  1097 PWs)   bands (ev):

    -3.4306   4.5497   4.7970   5.2573   7.5985   8.3953   8.5540   8.6906
     9.0022   9.0999   9.2750   9.4217   9.5290   9.5434   9.7292   9.8291
    10.2895  10.3123  10.5706  10.5726  10.6791  10.6879  11.5410  11.6715
    13.1408  13.2475  13.6898  16.6155  18.6875  20.0120

          k = 0.3821 0.1274-0.1148 (  1088 PWs)   bands (ev):

    -3.9756   4.6880   5.8528   6.3570   7.1660   8.0896   8.3477   8.5042
     8.5846   8.6624   9.1473   9.3358   9.5335   9.5764   9.7067   9.9065
    10.1010  10.3262  10.5008  10.5724  10.6688  10.8433  10.9901  11.6517
    13.2686  14.1989  16.1172  17.7268  19.0333  20.6887

          k = 0.3821 0.1274-0.3443 (  1085 PWs)   bands (ev):

    -3.7758   4.6256   5.0540   6.1287   7.4150   8.3674   8.4384   8.5759
     8.7349   8.8788   9.1103   9.2277   9.3501   9.5713   9.6457   9.7605
    10.0470  10.3773  10.4690  10.5887  10.6251  10.7959  11.0035  11.9707
    12.5291  14.9386  15.6608  17.6565  18.8335  20.8189

     the Fermi energy is    13.0723 ev

!    total energy              =    -880.39775958 Ry
     Harris-Foulkes estimate   =    -880.39775958 Ry
     estimated scf accuracy    <          3.0E-11 Ry

     total all-electron energy =    -13349.215622 Ry

     The total energy is the sum of the following terms:

     one-electron contribution =    -124.41513639 Ry
     hartree contribution      =     132.13659227 Ry
     xc contribution           =    -184.35464401 Ry
     ewald contribution        =    -336.39206246 Ry
     one-center paw contrib.   =    -367.36583132 Ry
     smearing contrib. (-TS)   =      -0.00667768 Ry

     total magnetization       =     0.00 Bohr mag/cell
     absolute magnetization    =     0.00 Bohr mag/cell

     convergence has been achieved in  21 iterations

     Forces acting on atoms (Ry/au):

     atom    1 type  1   force =     0.00000000    0.00000000   -0.01801387
     atom    2 type  1   force =     0.00000000    0.00000000   -0.01807284
     atom    3 type  1   force =     0.00000000    0.00000000   -0.01269341
     atom    4 type  1   force =     0.00000000    0.00000000    0.01246796
     atom    5 type  2   force =     0.00000000    0.00000000    0.03631216

     Total force =     0.047815     Total SCF correction =     0.000006


     entering subroutine stress ...

          total   stress  (Ry/bohr**3)                   (kbar)     P=   10.82
   0.00021455   0.00000000   0.00000000         31.56      0.00      0.00
   0.00000000   0.00021431   0.00000000          0.00     31.53      0.00
   0.00000000   0.00000000  -0.00020818          0.00      0.00    -30.62


     number of scf cycles    =   3
     number of bfgs steps    =   2

     enthalpy old            =    -880.3889999985 Ry
     enthalpy new            =    -880.3977595845 Ry

     CASE: enthalpy_new < enthalpy_old

     new trust radius        =       0.0603109852 bohr
     new conv_thr            =            3.6E-11 Ry

     new unit-cell volume =    367.28889 a.u.^3 (    54.42660 Ang^3 )

CELL_PARAMETERS (angstrom)
   3.682869798   0.000000000   0.000000000
   0.000000000   3.682801473   0.000000000
   0.000000000   0.000000000   4.012790747

ATOMIC_POSITIONS (angstrom)
Cu       0.000000000   0.000000000  -0.027608133
Cu       1.841434899   1.841400736  -0.027693050
Cu       0.000000000   1.841400736   1.745638232
Cu       1.841434899   0.000000000   1.794758153
N        0.000000000   1.841400736   3.623276980



     Writing output data file Cu2N.save
     NEW-OLD atomic charge density approx. for the potential

     Check: negative/imaginary core charge=   -0.000056    0.000000
     extrapolated charge   49.38169, renormalised to   49.00000

     total cpu time spent up to now is      290.8 secs

     per-process dynamical memory:    59.8 Mb

     Self-consistent Calculation

     iteration #  1     ecut=    30.00 Ry     beta=0.70
     Davidson diagonalization with overlap
     ethr =  1.00E-06,  avg # of iterations =  4.9

     total cpu time spent up to now is      298.0 secs

     total energy              =    -880.28616559 Ry
     Harris-Foulkes estimate   =    -879.21867756 Ry
     estimated scf accuracy    <       0.10726660 Ry

     total magnetization       =    -0.00 Bohr mag/cell
     absolute magnetization    =     0.00 Bohr mag/cell

     iteration #  2     ecut=    30.00 Ry     beta=0.70
     Davidson diagonalization with overlap
     ethr =  2.19E-04,  avg # of iterations =  3.0

     total cpu time spent up to now is      303.9 secs

     total energy              =    -880.33635638 Ry
     Harris-Foulkes estimate   =    -880.60506737 Ry
     estimated scf accuracy    <       0.89858674 Ry

     total magnetization       =    -0.00 Bohr mag/cell
     absolute magnetization    =     0.00 Bohr mag/cell

     iteration #  3     ecut=    30.00 Ry     beta=0.70
     Davidson diagonalization with overlap
     ethr =  2.19E-04,  avg # of iterations =  2.1

     total cpu time spent up to now is      310.7 secs

     total energy              =    -880.40959034 Ry
     Harris-Foulkes estimate   =    -880.41678848 Ry
     estimated scf accuracy    <       0.06590255 Ry

     total magnetization       =    -0.00 Bohr mag/cell
     absolute magnetization    =     0.00 Bohr mag/cell

     iteration #  4     ecut=    30.00 Ry     beta=0.70
     Davidson diagonalization with overlap
     ethr =  1.34E-04,  avg # of iterations =  1.0

     total cpu time spent up to now is      315.6 secs

     total energy              =    -880.40579373 Ry
     Harris-Foulkes estimate   =    -880.41073118 Ry
     estimated scf accuracy    <       0.04013458 Ry

     total magnetization       =    -0.00 Bohr mag/cell
     absolute magnetization    =     0.00 Bohr mag/cell

     iteration #  5     ecut=    30.00 Ry     beta=0.70
     Davidson diagonalization with overlap
     ethr =  8.19E-05,  avg # of iterations =  1.0

     total cpu time spent up to now is      322.9 secs

     total energy              =    -880.40090774 Ry
     Harris-Foulkes estimate   =    -880.40652192 Ry
     estimated scf accuracy    <       0.01944978 Ry

     total magnetization       =    -0.00 Bohr mag/cell
     absolute magnetization    =     0.00 Bohr mag/cell

     iteration #  6     ecut=    30.00 Ry     beta=0.70
     Davidson diagonalization with overlap
     ethr =  3.97E-05,  avg # of iterations =  1.6

     total cpu time spent up to now is      328.0 secs

     total energy              =    -880.40237873 Ry
     Harris-Foulkes estimate   =    -880.40273626 Ry
     estimated scf accuracy    <       0.00117524 Ry

     total magnetization       =    -0.00 Bohr mag/cell
     absolute magnetization    =     0.00 Bohr mag/cell

     iteration #  7     ecut=    30.00 Ry     beta=0.70
     Davidson diagonalization with overlap
     ethr =  2.40E-06,  avg # of iterations =  2.0

     total cpu time spent up to now is      333.7 secs

     total energy              =    -880.40253820 Ry
     Harris-Foulkes estimate   =    -880.40257125 Ry
     estimated scf accuracy    <       0.00007814 Ry

     total magnetization       =    -0.00 Bohr mag/cell
     absolute magnetization    =     0.00 Bohr mag/cell

     iteration #  8     ecut=    30.00 Ry     beta=0.70
     Davidson diagonalization with overlap
     ethr =  1.59E-07,  avg # of iterations =  2.1

     total cpu time spent up to now is      340.8 secs

     total energy              =    -880.40255900 Ry
     Harris-Foulkes estimate   =    -880.40256689 Ry
     estimated scf accuracy    <       0.00003843 Ry

     total magnetization       =    -0.00 Bohr mag/cell
     absolute magnetization    =     0.00 Bohr mag/cell

     iteration #  9     ecut=    30.00 Ry     beta=0.70
     Davidson diagonalization with overlap
     ethr =  7.84E-08,  avg # of iterations =  1.0

     total cpu time spent up to now is      348.2 secs

     total energy              =    -880.40255831 Ry
     Harris-Foulkes estimate   =    -880.40256085 Ry
     estimated scf accuracy    <       0.00000840 Ry

     total magnetization       =    -0.00 Bohr mag/cell
     absolute magnetization    =     0.00 Bohr mag/cell

     iteration # 10     ecut=    30.00 Ry     beta=0.70
     Davidson diagonalization with overlap
     ethr =  1.71E-08,  avg # of iterations =  2.0

     total cpu time spent up to now is      354.7 secs

     total energy              =    -880.40255943 Ry
     Harris-Foulkes estimate   =    -880.40255947 Ry
     estimated scf accuracy    <       0.00000014 Ry

     total magnetization       =    -0.00 Bohr mag/cell
     absolute magnetization    =     0.00 Bohr mag/cell

     iteration # 11     ecut=    30.00 Ry     beta=0.70
     Davidson diagonalization with overlap
     ethr =  2.79E-10,  avg # of iterations =  2.8

     total cpu time spent up to now is      363.3 secs

     total energy              =    -880.40255945 Ry
     Harris-Foulkes estimate   =    -880.40255946 Ry
     estimated scf accuracy    <       0.00000003 Ry

     total magnetization       =    -0.00 Bohr mag/cell
     absolute magnetization    =     0.00 Bohr mag/cell

     iteration # 12     ecut=    30.00 Ry     beta=0.70
     Davidson diagonalization with overlap
     ethr =  6.06E-11,  avg # of iterations =  2.0

     total cpu time spent up to now is      375.0 secs

     total energy              =    -880.40255945 Ry
     Harris-Foulkes estimate   =    -880.40255946 Ry
     estimated scf accuracy    <          8.3E-09 Ry

     total magnetization       =    -0.00 Bohr mag/cell
     absolute magnetization    =     0.00 Bohr mag/cell

     iteration # 13     ecut=    30.00 Ry     beta=0.70
     Davidson diagonalization with overlap
     ethr =  1.70E-11,  avg # of iterations =  2.0

     total cpu time spent up to now is      386.7 secs

     total energy              =    -880.40255945 Ry
     Harris-Foulkes estimate   =    -880.40255946 Ry
     estimated scf accuracy    <          3.3E-09 Ry

     total magnetization       =    -0.00 Bohr mag/cell
     absolute magnetization    =     0.00 Bohr mag/cell

     iteration # 14     ecut=    30.00 Ry     beta=0.70
     Davidson diagonalization with overlap
     ethr =  6.80E-12,  avg # of iterations =  1.5

     Magnetic moment per site:
     atom:    1    charge:    8.2603    magn:   -0.0000    constr:    0.0000
     atom:    2    charge:    8.2565    magn:   -0.0000    constr:    0.0000
     atom:    3    charge:    8.2522    magn:    0.0000    constr:    0.0000
     atom:    4    charge:    8.2847    magn:    0.0000    constr:    0.0000
     atom:    5    charge:    3.8444    magn:   -0.0000    constr:    0.0000

     total cpu time spent up to now is      392.0 secs

     End of self-consistent calculation

 ------ SPIN UP ------------


          k = 0.1263 0.1263 0.1159 (  1079 PWs)   bands (ev):

    -4.4757   5.1792   5.9917   6.4214   7.0101   7.9159   8.0224   8.0396
     8.2440   8.4297   9.1594   9.3142   9.3713   9.6222   9.6660  10.0404
    10.2357  10.3595  10.5348  10.5478  10.6955  10.7730  10.9133  11.0200
    12.9000  15.4353  16.3251  16.4345  19.0998  20.0358

          k = 0.1263 0.1263 0.3476 (  1088 PWs)   bands (ev):

    -4.2533   4.3564   6.1420   6.2329   6.9036   7.9287   8.1346   8.3747
     8.4380   8.5065   8.9714   9.3158   9.3660   9.5079   9.5121   9.8578
    10.1423  10.3024  10.4487  10.5081  10.6231  10.7337  10.9830  11.3287
    13.5385  14.4667  16.0377  17.3715  19.2925  20.7318

          k = 0.1263 0.3788 0.1159 (  1088 PWs)   bands (ev):

    -4.1235   4.5640   5.7837   6.2465   7.0454   7.9988   8.2511   8.4204
     8.4921   8.5513   9.0282   9.2578   9.4222   9.4898   9.5906   9.7970
    10.0010  10.2287  10.3946  10.4657  10.5456  10.7219  10.8340  11.4353
    13.2354  14.0721  15.9529  17.5563  18.8320  20.5047

          k = 0.1263 0.3788 0.3476 (  1085 PWs)   bands (ev):

    -3.9097   4.5311   4.9019   6.0069   7.3447   8.2845   8.3420   8.4954
     8.6395   8.7798   9.0141   9.1117   9.2235   9.4651   9.5400   9.6613
     9.9301  10.2799  10.3650  10.4729  10.5028  10.6660  10.8923  11.7699
    12.4234  14.8303  15.5058  17.4272  18.6551  20.5822

          k = 0.3788 0.3788 0.1159 (  1087 PWs)   bands (ev):

    -3.7784   4.6000   4.7394   6.0385   7.4704   8.3300   8.3913   8.6215
     8.6253   8.7975   8.9997   9.0914   9.1203   9.4593   9.5131   9.7205
     9.9954  10.0280  10.3874  10.4174  10.5781  10.6558  11.0733  11.5656
    12.9049  14.2006  15.0240  17.0143  18.4783  20.4889

          k = 0.3788 0.3788 0.3476 (  1097 PWs)   bands (ev):

    -3.5652   4.4362   4.6454   5.0483   7.5164   8.2954   8.4592   8.6010
     8.9172   8.9901   9.1533   9.3268   9.4378   9.4551   9.6023   9.7322
    10.1903  10.2128  10.4527  10.4533  10.5607  10.5663  11.4457  11.5563
    13.0716  13.1306  13.5138  16.4961  18.6185  19.8042

          k = 0.3788 0.1263-0.1159 (  1088 PWs)   bands (ev):

    -4.1235   4.5635   5.7838   6.2466   7.0454   7.9988   8.2515   8.4205
     8.4921   8.5515   9.0282   9.2576   9.4220   9.4899   9.5907   9.7971
    10.0011  10.2287  10.3946  10.4656  10.5456  10.7217  10.8338  11.4354
    13.2354  14.0719  15.9530  17.5565  18.8321  20.5048

          k = 0.3788 0.1263-0.3476 (  1085 PWs)   bands (ev):

    -3.9097   4.5308   4.9015   6.0073   7.3448   8.2844   8.3422   8.4959
     8.6397   8.7798   9.0140   9.1117   9.2233   9.4651   9.5399   9.6612
     9.9301  10.2798  10.3649  10.4728  10.5026  10.6660  10.8920  11.7702
    12.4234  14.8303  15.5060  17.4273  18.6554  20.5823

 ------ SPIN DOWN ----------


          k = 0.1263 0.1263 0.1159 (  1079 PWs)   bands (ev):

    -4.4757   5.1792   5.9917   6.4214   7.0101   7.9159   8.0224   8.0396
     8.2440   8.4297   9.1594   9.3142   9.3713   9.6222   9.6660  10.0404
    10.2357  10.3595  10.5348  10.5478  10.6955  10.7730  10.9133  11.0200
    12.9000  15.4353  16.3251  16.4345  19.0998  20.0358

          k = 0.1263 0.1263 0.3476 (  1088 PWs)   bands (ev):

    -4.2533   4.3564   6.1420   6.2329   6.9036   7.9287   8.1346   8.3747
     8.4380   8.5065   8.9714   9.3158   9.3660   9.5079   9.5121   9.8578
    10.1423  10.3024  10.4487  10.5081  10.6231  10.7337  10.9830  11.3287
    13.5385  14.4667  16.0377  17.3715  19.2925  20.7318

          k = 0.1263 0.3788 0.1159 (  1088 PWs)   bands (ev):

    -4.1235   4.5640   5.7837   6.2465   7.0454   7.9988   8.2511   8.4204
     8.4921   8.5513   9.0282   9.2578   9.4222   9.4898   9.5906   9.7970
    10.0010  10.2287  10.3946  10.4657  10.5456  10.7219  10.8340  11.4353
    13.2354  14.0721  15.9529  17.5563  18.8320  20.5047

          k = 0.1263 0.3788 0.3476 (  1085 PWs)   bands (ev):

    -3.9097   4.5311   4.9019   6.0069   7.3447   8.2845   8.3420   8.4954
     8.6395   8.7798   9.0141   9.1117   9.2235   9.4651   9.5400   9.6613
     9.9301  10.2799  10.3650  10.4729  10.5028  10.6660  10.8923  11.7699
    12.4234  14.8303  15.5058  17.4272  18.6551  20.5822

          k = 0.3788 0.3788 0.1159 (  1087 PWs)   bands (ev):

    -3.7784   4.6000   4.7394   6.0385   7.4704   8.3300   8.3913   8.6215
     8.6253   8.7975   8.9997   9.0914   9.1203   9.4593   9.5131   9.7205
     9.9954  10.0280  10.3874  10.4174  10.5781  10.6558  11.0733  11.5656
    12.9049  14.2006  15.0240  17.0143  18.4783  20.4889

          k = 0.3788 0.3788 0.3476 (  1097 PWs)   bands (ev):

    -3.5652   4.4362   4.6454   5.0483   7.5164   8.2954   8.4592   8.6010
     8.9172   8.9901   9.1533   9.3268   9.4378   9.4551   9.6023   9.7322
    10.1903  10.2128  10.4527  10.4533  10.5607  10.5663  11.4457  11.5563
    13.0716  13.1306  13.5138  16.4961  18.6185  19.8042

          k = 0.3788 0.1263-0.1159 (  1088 PWs)   bands (ev):

    -4.1235   4.5635   5.7838   6.2466   7.0454   7.9988   8.2515   8.4205
     8.4921   8.5515   9.0282   9.2576   9.4220   9.4899   9.5907   9.7971
    10.0011  10.2287  10.3946  10.4656  10.5456  10.7217  10.8338  11.4354
    13.2354  14.0719  15.9530  17.5565  18.8321  20.5048

          k = 0.3788 0.1263-0.3476 (  1085 PWs)   bands (ev):

    -3.9097   4.5308   4.9015   6.0073   7.3448   8.2844   8.3422   8.4959
     8.6397   8.7798   9.0140   9.1117   9.2233   9.4651   9.5399   9.6612
     9.9301  10.2798  10.3649  10.4728  10.5026  10.6660  10.8920  11.7702
    12.4234  14.8303  15.5060  17.4273  18.6554  20.5823

     the Fermi energy is    12.9765 ev

!    total energy              =    -880.40255945 Ry
     Harris-Foulkes estimate   =    -880.40255945 Ry
     estimated scf accuracy    <          2.0E-11 Ry

     total all-electron energy =    -13349.220422 Ry

     The total energy is the sum of the following terms:

     one-electron contribution =    -125.49103748 Ry
     hartree contribution      =     132.44510844 Ry
     xc contribution           =    -184.32382498 Ry
     ewald contribution        =    -335.66917436 Ry
     one-center paw contrib.   =    -367.35750608 Ry
     smearing contrib. (-TS)   =      -0.00612500 Ry

     total magnetization       =    -0.00 Bohr mag/cell
     absolute magnetization    =     0.00 Bohr mag/cell

     convergence has been achieved in  14 iterations

     Forces acting on atoms (Ry/au):

     atom    1 type  1   force =     0.00000000    0.00000000   -0.01902730
     atom    2 type  1   force =     0.00000000    0.00000000   -0.01911653
     atom    3 type  1   force =     0.00000000    0.00000000   -0.00151685
     atom    4 type  1   force =     0.00000000    0.00000000    0.01007197
     atom    5 type  2   force =     0.00000000    0.00000000    0.02958871

     Total force =     0.041312     Total SCF correction =     0.000002


     entering subroutine stress ...

          total   stress  (Ry/bohr**3)                   (kbar)     P=  -27.31
  -0.00010250   0.00000000   0.00000000        -15.08      0.00      0.00
   0.00000000  -0.00010285   0.00000000          0.00    -15.13      0.00
   0.00000000   0.00000000  -0.00035162          0.00      0.00    -51.72


     number of scf cycles    =   4
     number of bfgs steps    =   3

     enthalpy old            =    -880.3977595845 Ry
     enthalpy new            =    -880.4025594541 Ry

     CASE: enthalpy_new < enthalpy_old

     new trust radius        =       0.0895926152 bohr
     new conv_thr            =            3.0E-11 Ry

     new unit-cell volume =    366.75610 a.u.^3 (    54.34765 Ang^3 )

CELL_PARAMETERS (angstrom)
   3.713098079   0.000000000   0.000000000
   0.000000000   3.712959700   0.000000000
   0.000000000   0.000000000   3.942067724

ATOMIC_POSITIONS (angstrom)
Cu       0.000000000   0.000000000  -0.051763970
Cu       1.856549039   1.856479850  -0.051940049
Cu       0.000000000   1.856479850   1.701725843
Cu       1.856549039   0.000000000   1.779075879
N        0.000000000   1.856479850   3.605993693



     Writing output data file Cu2N.save
     NEW-OLD atomic charge density approx. for the potential

     Check: negative/imaginary core charge=   -0.000056    0.000000
     extrapolated charge   48.92882, renormalised to   49.00000

     total cpu time spent up to now is      408.7 secs

     per-process dynamical memory:    59.8 Mb

     Self-consistent Calculation

     iteration #  1     ecut=    30.00 Ry     beta=0.70
     Davidson diagonalization with overlap
     ethr =  1.00E-06,  avg # of iterations =  5.2

     total cpu time spent up to now is      416.9 secs

     total energy              =    -880.40358065 Ry
     Harris-Foulkes estimate   =    -880.62204592 Ry
     estimated scf accuracy    <       0.00433982 Ry

     total magnetization       =    -0.00 Bohr mag/cell
     absolute magnetization    =     0.00 Bohr mag/cell

     iteration #  2     ecut=    30.00 Ry     beta=0.70
     Davidson diagonalization with overlap
     ethr =  8.86E-06,  avg # of iterations =  3.0

     total cpu time spent up to now is      429.3 secs

     total energy              =    -880.40428445 Ry
     Harris-Foulkes estimate   =    -880.41492464 Ry
     estimated scf accuracy    <       0.03711401 Ry

     total magnetization       =    -0.00 Bohr mag/cell
     absolute magnetization    =     0.00 Bohr mag/cell

     iteration #  3     ecut=    30.00 Ry     beta=0.70
     Davidson diagonalization with overlap
     ethr =  8.86E-06,  avg # of iterations =  2.1

     total cpu time spent up to now is      440.6 secs

     total energy              =    -880.40755891 Ry
     Harris-Foulkes estimate   =    -880.40805741 Ry
     estimated scf accuracy    <       0.00204579 Ry

     total magnetization       =    -0.00 Bohr mag/cell
     absolute magnetization    =     0.00 Bohr mag/cell

     iteration #  4     ecut=    30.00 Ry     beta=0.70
     Davidson diagonalization with overlap
     ethr =  4.18E-06,  avg # of iterations =  1.8

     total cpu time spent up to now is      447.3 secs

     total energy              =    -880.40744703 Ry
     Harris-Foulkes estimate   =    -880.40787125 Ry
     estimated scf accuracy    <       0.00152138 Ry

     total magnetization       =    -0.00 Bohr mag/cell
     absolute magnetization    =     0.00 Bohr mag/cell

     iteration #  5     ecut=    30.00 Ry     beta=0.70
     Davidson diagonalization with overlap
     ethr =  3.10E-06,  avg # of iterations =  1.0

     total cpu time spent up to now is      456.8 secs

     total energy              =    -880.40758716 Ry
     Harris-Foulkes estimate   =    -880.40765063 Ry
     estimated scf accuracy    <       0.00016514 Ry

     total magnetization       =    -0.00 Bohr mag/cell
     absolute magnetization    =     0.00 Bohr mag/cell

     iteration #  6     ecut=    30.00 Ry     beta=0.70
     Davidson diagonalization with overlap
     ethr =  3.37E-07,  avg # of iterations =  2.0

     total cpu time spent up to now is      463.2 secs

     total energy              =    -880.40761824 Ry
     Harris-Foulkes estimate   =    -880.40761922 Ry
     estimated scf accuracy    <       0.00000154 Ry

     total magnetization       =    -0.00 Bohr mag/cell
     absolute magnetization    =     0.00 Bohr mag/cell

     iteration #  7     ecut=    30.00 Ry     beta=0.70
     Davidson diagonalization with overlap
     ethr =  3.14E-09,  avg # of iterations =  2.9

     total cpu time spent up to now is      476.5 secs

     total energy              =    -880.40761851 Ry
     Harris-Foulkes estimate   =    -880.40761959 Ry
     estimated scf accuracy    <       0.00000421 Ry

     total magnetization       =    -0.00 Bohr mag/cell
     absolute magnetization    =     0.00 Bohr mag/cell

     iteration #  8     ecut=    30.00 Ry     beta=0.70
     Davidson diagonalization with overlap
     ethr =  3.14E-09,  avg # of iterations =  2.0

     total cpu time spent up to now is      486.9 secs

     total energy              =    -880.40761880 Ry
     Harris-Foulkes estimate   =    -880.40761904 Ry
     estimated scf accuracy    <       0.00000078 Ry

     total magnetization       =    -0.00 Bohr mag/cell
     absolute magnetization    =     0.00 Bohr mag/cell

     iteration #  9     ecut=    30.00 Ry     beta=0.70
     Davidson diagonalization with overlap
     ethr =  1.59E-09,  avg # of iterations =  2.0

     total cpu time spent up to now is      499.7 secs

     total energy              =    -880.40761886 Ry
     Harris-Foulkes estimate   =    -880.40761888 Ry
     estimated scf accuracy    <       0.00000005 Ry

     total magnetization       =    -0.00 Bohr mag/cell
     absolute magnetization    =     0.00 Bohr mag/cell

     iteration # 10     ecut=    30.00 Ry     beta=0.70
     Davidson diagonalization with overlap
     ethr =  1.10E-10,  avg # of iterations =  2.0

     total cpu time spent up to now is      512.4 secs

     total energy              =    -880.40761887 Ry
     Harris-Foulkes estimate   =    -880.40761888 Ry
     estimated scf accuracy    <          8.3E-09 Ry

     total magnetization       =     0.00 Bohr mag/cell
     absolute magnetization    =     0.00 Bohr mag/cell

     iteration # 11     ecut=    30.00 Ry     beta=0.70
     Davidson diagonalization with overlap
     ethr =  1.70E-11,  avg # of iterations =  2.0

     total cpu time spent up to now is      521.4 secs

     total energy              =    -880.40761887 Ry
     Harris-Foulkes estimate   =    -880.40761887 Ry
     estimated scf accuracy    <          2.6E-09 Ry

     total magnetization       =    -0.00 Bohr mag/cell
     absolute magnetization    =     0.00 Bohr mag/cell

     iteration # 12     ecut=    30.00 Ry     beta=0.70
     Davidson diagonalization with overlap
     ethr =  5.37E-12,  avg # of iterations =  1.1

     Magnetic moment per site:
     atom:    1    charge:    8.2480    magn:   -0.0000    constr:    0.0000
     atom:    2    charge:    8.2441    magn:    0.0000    constr:    0.0000
     atom:    3    charge:    8.2425    magn:    0.0000    constr:    0.0000
     atom:    4    charge:    8.2774    magn:    0.0000    constr:    0.0000
     atom:    5    charge:    3.8101    magn:   -0.0000    constr:    0.0000

     total cpu time spent up to now is      529.3 secs

     End of self-consistent calculation

 ------ SPIN UP ------------


          k = 0.1252 0.1252 0.1180 (  1079 PWs)   bands (ev):

    -4.5614   5.2330   6.1086   6.4442   7.0150   7.9744   8.0651   8.0829
     8.1774   8.3523   9.2019   9.3360   9.3725   9.6018   9.6607  10.0579
    10.2596  10.3946  10.5230  10.6122  10.7166  10.7876  10.9300  11.0172
    13.0139  15.5582  16.2236  16.3425  19.2386  19.9166

          k = 0.1252 0.1252 0.3539 (  1088 PWs)   bands (ev):

    -4.3141   4.4078   6.1374   6.2006   6.9441   7.9747   8.1873   8.4280
     8.4480   8.5340   9.0159   9.3405   9.3498   9.5253   9.5394   9.8661
    10.1418  10.3448  10.4642  10.5182  10.6460  10.7414  10.9776  11.2624
    13.5730  14.4209  16.0460  17.4541  19.1785  20.6426

          k = 0.1252 0.3757 0.1180 (  1088 PWs)   bands (ev):

    -4.2121   4.5137   5.8301   6.2068   7.0182   8.0168   8.2732   8.4671
[...]


   Cartesian axes

     site n.     atom                  positions (alat units)
         1           Cu  tau(   1) = (   0.0000000   0.0000000  -0.0474589  )
         2           Cu  tau(   2) = (   0.4982727   0.4982108  -0.0476605  )
         3           Cu  tau(   3) = (   0.0000000   0.4982108   0.4732764  )
         4           Cu  tau(   4) = (   0.4982727   0.0000000   0.4731542  )
         5           N   tau(   5) = (   0.0000000   0.4982108   0.9941902  )

     number of k points=     8  gaussian smearing, width (Ry)=  0.0200
                       cart. coord. in units 2pi/alat
        k(    1) = (   0.1254333   0.1254489   0.1199829), wk =   0.1250000
        k(    2) = (   0.1254333   0.1254489   0.3599487), wk =   0.1250000
        k(    3) = (   0.1254333   0.3763467   0.1199829), wk =   0.1250000
        k(    4) = (   0.1254333   0.3763467   0.3599487), wk =   0.1250000
        k(    5) = (   0.3762999   0.3763467   0.1199829), wk =   0.1250000
        k(    6) = (   0.3762999   0.3763467   0.3599487), wk =   0.1250000
        k(    7) = (   0.3762999   0.1254489  -0.1199829), wk =   0.1250000
        k(    8) = (   0.3762999   0.1254489  -0.3599487), wk =   0.1250000

     Dense  grid:     8033 G-vectors     FFT dimensions: (  25,  25,  27)

     Estimated max dynamical RAM per process >      20.70Mb
     Generating pointlists ...

     Check: negative/imaginary core charge=   -0.000079    0.000000

     Initial potential from superposition of free atoms

     starting charge   48.99908, renormalised to   49.00000
     Starting wfc are   40 randomized atomic wfcs
     Checking if some PAW data can be deallocated... 

     Writing output data file Cu2N.save

     total cpu time spent up to now is     2439.0 secs

     per-process dynamical memory:    57.9 Mb

     Self-consistent Calculation

     iteration #  1     ecut=    30.00 Ry     beta=0.70
     Davidson diagonalization with overlap
     ethr =  1.00E-06,  avg # of iterations = 10.0

     total cpu time spent up to now is     2447.4 secs

     total energy              =    -879.88599080 Ry
     Harris-Foulkes estimate   =    -880.54595993 Ry
     estimated scf accuracy    <       0.80131058 Ry

     total magnetization       =     0.00 Bohr mag/cell
     absolute magnetization    =     0.01 Bohr mag/cell

     iteration #  2     ecut=    30.00 Ry     beta=0.70
     Davidson diagonalization with overlap
     ethr =  1.64E-03,  avg # of iterations =  2.6

     total cpu time spent up to now is     2452.0 secs

     total energy              =    -879.91774698 Ry
     Harris-Foulkes estimate   =    -881.09116611 Ry
     estimated scf accuracy    <       3.02546570 Ry

     total magnetization       =     0.00 Bohr mag/cell
     absolute magnetization    =     0.00 Bohr mag/cell

     iteration #  3     ecut=    30.00 Ry     beta=0.70
     Davidson diagonalization with overlap
     ethr =  1.64E-03,  avg # of iterations =  2.4

     total cpu time spent up to now is     2455.9 secs

     total energy              =    -880.38098426 Ry
     Harris-Foulkes estimate   =    -880.38408420 Ry
     estimated scf accuracy    <       0.00671491 Ry

     total magnetization       =     0.00 Bohr mag/cell
     absolute magnetization    =     0.00 Bohr mag/cell

     iteration #  4     ecut=    30.00 Ry     beta=0.70
     Davidson diagonalization with overlap
     ethr =  1.37E-05,  avg # of iterations =  2.6

     total cpu time spent up to now is     2459.7 secs

     total energy              =    -880.38047054 Ry
     Harris-Foulkes estimate   =    -880.38475492 Ry
     estimated scf accuracy    <       0.01291141 Ry

     total magnetization       =     0.00 Bohr mag/cell
     absolute magnetization    =     0.00 Bohr mag/cell

     iteration #  5     ecut=    30.00 Ry     beta=0.70
     Davidson diagonalization with overlap
     ethr =  1.37E-05,  avg # of iterations =  2.0

     total cpu time spent up to now is     2463.1 secs

     total energy              =    -880.38273832 Ry
     Harris-Foulkes estimate   =    -880.38296331 Ry
     estimated scf accuracy    <       0.00082331 Ry

     total magnetization       =     0.00 Bohr mag/cell
     absolute magnetization    =     0.00 Bohr mag/cell

     iteration #  6     ecut=    30.00 Ry     beta=0.70
     Davidson diagonalization with overlap
     ethr =  1.68E-06,  avg # of iterations =  2.0

     total cpu time spent up to now is     2466.3 secs

     total energy              =    -880.38281827 Ry
     Harris-Foulkes estimate   =    -880.38289448 Ry
     estimated scf accuracy    <       0.00017678 Ry

     total magnetization       =     0.00 Bohr mag/cell
     absolute magnetization    =     0.00 Bohr mag/cell

     iteration #  7     ecut=    30.00 Ry     beta=0.70
     Davidson diagonalization with overlap
     ethr =  3.61E-07,  avg # of iterations =  2.0

     total cpu time spent up to now is     2469.7 secs

     total energy              =    -880.38285006 Ry
     Harris-Foulkes estimate   =    -880.38286816 Ry
     estimated scf accuracy    <       0.00006038 Ry

     total magnetization       =     0.00 Bohr mag/cell
     absolute magnetization    =     0.00 Bohr mag/cell

     iteration #  8     ecut=    30.00 Ry     beta=0.70
     Davidson diagonalization with overlap
     ethr =  1.23E-07,  avg # of iterations =  1.9

     total cpu time spent up to now is     2472.9 secs

     total energy              =    -880.38285756 Ry
     Harris-Foulkes estimate   =    -880.38286147 Ry
     estimated scf accuracy    <       0.00001182 Ry

     total magnetization       =     0.00 Bohr mag/cell
     absolute magnetization    =     0.00 Bohr mag/cell

     iteration #  9     ecut=    30.00 Ry     beta=0.70
     Davidson diagonalization with overlap
     ethr =  2.41E-08,  avg # of iterations =  1.6

     total cpu time spent up to now is     2476.0 secs

     total energy              =    -880.38285935 Ry
     Harris-Foulkes estimate   =    -880.38285936 Ry
     estimated scf accuracy    <       0.00000004 Ry

     total magnetization       =     0.00 Bohr mag/cell
     absolute magnetization    =     0.00 Bohr mag/cell

     iteration # 10     ecut=    30.00 Ry     beta=0.70
     Davidson diagonalization with overlap
     ethr =  8.45E-11,  avg # of iterations =  3.8

     total cpu time spent up to now is     2480.2 secs

     total energy              =    -880.38285940 Ry
     Harris-Foulkes estimate   =    -880.38285942 Ry
     estimated scf accuracy    <       0.00000006 Ry

     total magnetization       =     0.00 Bohr mag/cell
     absolute magnetization    =     0.00 Bohr mag/cell

     iteration # 11     ecut=    30.00 Ry     beta=0.70
     Davidson diagonalization with overlap
     ethr =  8.45E-11,  avg # of iterations =  2.0

     total cpu time spent up to now is     2483.5 secs

     total energy              =    -880.38285940 Ry
     Harris-Foulkes estimate   =    -880.38285941 Ry
     estimated scf accuracy    <       0.00000001 Ry

     total magnetization       =     0.00 Bohr mag/cell
     absolute magnetization    =     0.00 Bohr mag/cell

     iteration # 12     ecut=    30.00 Ry     beta=0.70
     Davidson diagonalization with overlap
     ethr =  2.70E-11,  avg # of iterations =  2.1

     total cpu time spent up to now is     2486.8 secs

     total energy              =    -880.38285941 Ry
     Harris-Foulkes estimate   =    -880.38285941 Ry
     estimated scf accuracy    <          1.1E-09 Ry

     total magnetization       =     0.00 Bohr mag/cell
     absolute magnetization    =     0.00 Bohr mag/cell

     iteration # 13     ecut=    30.00 Ry     beta=0.70
     Davidson diagonalization with overlap
     ethr =  2.19E-12,  avg # of iterations =  2.1

     total cpu time spent up to now is     2490.1 secs

     total energy              =    -880.38285941 Ry
     Harris-Foulkes estimate   =    -880.38285941 Ry
     estimated scf accuracy    <          2.4E-11 Ry

     total magnetization       =     0.00 Bohr mag/cell
     absolute magnetization    =     0.00 Bohr mag/cell

     iteration # 14     ecut=    30.00 Ry     beta=0.70
     Davidson diagonalization with overlap
     ethr =  1.00E-13,  avg # of iterations =  2.1

     total cpu time spent up to now is     2493.6 secs

     total energy              =    -880.38285941 Ry
     Harris-Foulkes estimate   =    -880.38285941 Ry
     estimated scf accuracy    <          5.5E-12 Ry

     total magnetization       =     0.00 Bohr mag/cell
     absolute magnetization    =     0.00 Bohr mag/cell

     iteration # 15     ecut=    30.00 Ry     beta=0.70
     Davidson diagonalization with overlap
     ethr =  1.00E-13,  avg # of iterations =  1.0

     total cpu time spent up to now is     2496.9 secs

     total energy              =    -880.38285941 Ry
     Harris-Foulkes estimate   =    -880.38285941 Ry
     estimated scf accuracy    <          3.2E-12 Ry

     total magnetization       =     0.00 Bohr mag/cell
     absolute magnetization    =     0.00 Bohr mag/cell

     iteration # 16     ecut=    30.00 Ry     beta=0.70
     Davidson diagonalization with overlap
     ethr =  1.00E-13,  avg # of iterations =  1.0

     total cpu time spent up to now is     2500.3 secs

     total energy              =    -880.38285941 Ry
     Harris-Foulkes estimate   =    -880.38285941 Ry
     estimated scf accuracy    <          2.1E-12 Ry

     total magnetization       =     0.00 Bohr mag/cell
     absolute magnetization    =     0.00 Bohr mag/cell

     iteration # 17     ecut=    30.00 Ry     beta=0.70
     Davidson diagonalization with overlap
     ethr =  1.00E-13,  avg # of iterations =  1.0

     Magnetic moment per site:
     atom:    1    charge:    8.3738    magn:    0.0000    constr:    0.0000
     atom:    2    charge:    8.3717    magn:    0.0000    constr:    0.0000
     atom:    3    charge:    8.3620    magn:    0.0000    constr:    0.0000
     atom:    4    charge:    8.3913    magn:    0.0000    constr:    0.0000
     atom:    5    charge:    4.0261    magn:    0.0000    constr:    0.0000

     total cpu time spent up to now is     2503.6 secs

     End of self-consistent calculation

 ------ SPIN UP ------------


          k = 0.1254 0.1254 0.1200 (   994 PWs)   bands (ev):

    -4.5664   5.4956   6.5833   6.6290   6.9987   8.2577   8.3291   8.3544
     8.3567   8.5690   9.4729   9.6037   9.6494   9.8042   9.8363  10.3261
    10.5554  10.6915  10.7652  10.9618  11.0125  11.0708  11.2314  11.2895
    13.5088  16.1539  16.4736  16.5495  19.7186  20.3233

          k = 0.1254 0.1254 0.3599 (   995 PWs)   bands (ev):

    -4.3005   4.6826   6.3077   6.3279   7.2300   8.1768   8.4647   8.7832
     8.7929   8.8174   9.2654   9.5134   9.5315   9.8298   9.8508  10.1079
    10.3966  10.6651  10.7410  10.7601  10.9542  10.9958  11.2393  11.3904
    14.1478  14.6418  16.4327  17.9275  19.5678  20.9849

          k = 0.1254 0.3763 0.1200 (   999 PWs)   bands (ev):

    -4.1928   4.5724   6.1365   6.2120   7.1357   8.2590   8.5651   8.7578
     8.7961   8.8404   9.2725   9.5716   9.6829   9.8205   9.8832  10.1294
    10.4020  10.6445  10.7051  10.8587  10.8766  11.0467  11.1883  11.5051
    14.0667  14.5550  16.3345  18.0044  19.3092  20.8357

          k = 0.1254 0.3763 0.3599 (   996 PWs)   bands (ev):

    -3.9289   4.6607   4.8217   6.0344   7.6684   8.5511   8.6966   8.9065
     8.9937   9.0493   9.2750   9.3332   9.4356   9.7651   9.8551   9.9825
    10.2451  10.6913  10.7180  10.7892  10.8573  10.9770  11.2825  11.9002
    12.9272  15.4025  15.9362  17.8052  19.1831  20.9436

          k = 0.3763 0.3763 0.1200 (  1000 PWs)   bands (ev):

    -3.8172   4.6044   4.6318   5.9019   7.6835   8.6138   8.6377   8.9747
     9.0074   9.1010   9.2407   9.3346   9.4277   9.7989   9.8206  10.0204
    10.2788  10.7155  10.7537  10.7775  10.8790  11.0146  11.3540  12.0013
    13.1822  15.1905  15.8374  17.4617  19.0566  20.7518

          k = 0.3763 0.3763 0.3599 (   999 PWs)   bands (ev):

    -3.5456   4.5328   4.5629   4.7141   7.8205   8.5532   8.7042   8.9007
     9.2114   9.2874   9.4604   9.7017   9.7262   9.8077   9.8844  10.0539
    10.4998  10.6981  10.7646  10.7947  10.8924  10.9131  11.9399  11.9774
    13.6410  13.7240  13.8541  17.1265  19.3690  20.3377

          k = 0.3763 0.1254-0.1200 (   998 PWs)   bands (ev):

    -4.1931   4.5729   6.1367   6.2129   7.1364   8.2591   8.5657   8.7584
     8.7962   8.8413   9.2725   9.5706   9.6823   9.8208   9.8835  10.1299
    10.4022  10.6446  10.7055  10.8579  10.8767  11.0465  11.1881  11.5041
    14.0672  14.5553  16.3348  18.0047  19.3102  20.8369

          k = 0.3763 0.1254-0.3599 (   996 PWs)   bands (ev):

    -3.9292   4.6613   4.8218   6.0346   7.6686   8.5518   8.6965   8.9072
     8.9934   9.0501   9.2752   9.3330   9.4349   9.7646   9.8550   9.9824
    10.2449  10.6913  10.7179  10.7888  10.8571  10.9766  11.2820  11.8989
    12.9265  15.4031  15.9370  17.8062  19.1839  20.9445

 ------ SPIN DOWN ----------


          k = 0.1254 0.1254 0.1200 (   994 PWs)   bands (ev):

    -4.5664   5.4956   6.5833   6.6290   6.9987   8.2577   8.3291   8.3544
     8.3567   8.5690   9.4729   9.6037   9.6494   9.8042   9.8363  10.3261
    10.5554  10.6915  10.7652  10.9618  11.0125  11.0708  11.2314  11.2895
    13.5088  16.1539  16.4736  16.5495  19.7186  20.3233

          k = 0.1254 0.1254 0.3599 (   995 PWs)   bands (ev):

    -4.3005   4.6826   6.3077   6.3279   7.2300   8.1768   8.4647   8.7832
     8.7929   8.8174   9.2654   9.5134   9.5315   9.8298   9.8508  10.1079
    10.3966  10.6651  10.7410  10.7601  10.9542  10.9958  11.2393  11.3904
    14.1478  14.6418  16.4327  17.9275  19.5678  20.9849

          k = 0.1254 0.3763 0.1200 (   999 PWs)   bands (ev):

    -4.1928   4.5724   6.1365   6.2120   7.1357   8.2590   8.5651   8.7578
     8.7961   8.8404   9.2725   9.5716   9.6829   9.8205   9.8832  10.1294
    10.4020  10.6445  10.7051  10.8587  10.8766  11.0467  11.1883  11.5051
    14.0667  14.5550  16.3345  18.0044  19.3092  20.8357

          k = 0.1254 0.3763 0.3599 (   996 PWs)   bands (ev):

    -3.9289   4.6607   4.8217   6.0344   7.6684   8.5511   8.6966   8.9065
     8.9937   9.0493   9.2750   9.3332   9.4356   9.7651   9.8551   9.9825
    10.2451  10.6913  10.7180  10.7892  10.8573  10.9770  11.2825  11.9002
    12.9272  15.4025  15.9362  17.8052  19.1831  20.9436

          k = 0.3763 0.3763 0.1200 (  1000 PWs)   bands (ev):

    -3.8172   4.6044   4.6318   5.9019   7.6835   8.6138   8.6377   8.9747
     9.0074   9.1010   9.2407   9.3346   9.4277   9.7989   9.8206  10.0204
    10.2788  10.7155  10.7537  10.7775  10.8790  11.0146  11.3540  12.0013
    13.1822  15.1905  15.8374  17.4617  19.0566  20.7518

          k = 0.3763 0.3763 0.3599 (   999 PWs)   bands (ev):

    -3.5456   4.5328   4.5629   4.7141   7.8205   8.5532   8.7042   8.9007
     9.2114   9.2874   9.4604   9.7017   9.7262   9.8077   9.8844  10.0539
    10.4998  10.6981  10.7646  10.7947  10.8924  10.9131  11.9399  11.9774
    13.6410  13.7240  13.8541  17.1265  19.3690  20.3377

          k = 0.3763 0.1254-0.1200 (   998 PWs)   bands (ev):

    -4.1931   4.5729   6.1367   6.2129   7.1364   8.2591   8.5657   8.7584
     8.7962   8.8413   9.2725   9.5706   9.6823   9.8208   9.8835  10.1299
    10.4022  10.6446  10.7055  10.8579  10.8767  11.0465  11.1881  11.5041
    14.0672  14.5553  16.3348  18.0047  19.3102  20.8369

          k = 0.3763 0.1254-0.3599 (   996 PWs)   bands (ev):

    -3.9292   4.6613   4.8218   6.0346   7.6686   8.5518   8.6965   8.9072
     8.9934   9.0501   9.2752   9.3330   9.4349   9.7646   9.8550   9.9824
    10.2449  10.6913  10.7179  10.7888  10.8571  10.9766  11.2820  11.8989
    12.9265  15.4031  15.9370  17.8062  19.1839  20.9445

     the Fermi energy is    13.5304 ev

!    total energy              =    -880.38285941 Ry
     Harris-Foulkes estimate   =    -880.38285941 Ry
     estimated scf accuracy    <          2.6E-13 Ry

     total all-electron energy =    -13349.200722 Ry

     The total energy is the sum of the following terms:

     one-electron contribution =    -119.99755795 Ry
     hartree contribution      =     130.17608612 Ry
     xc contribution           =    -184.33326547 Ry
     ewald contribution        =    -338.88027698 Ry
     one-center paw contrib.   =    -367.34369387 Ry
     smearing contrib. (-TS)   =      -0.00415127 Ry

     total magnetization       =     0.00 Bohr mag/cell
     absolute magnetization    =     0.00 Bohr mag/cell

     convergence has been achieved in  17 iterations

     Forces acting on atoms (Ry/au):

     atom    1 type  1   force =     0.00000000    0.00000000    0.00029194
     atom    2 type  1   force =     0.00000000    0.00000000    0.00035951
     atom    3 type  1   force =     0.00000000    0.00000000   -0.00052788
     atom    4 type  1   force =     0.00000000    0.00000000    0.00026866
     atom    5 type  2   force =     0.00000000    0.00000000   -0.00039223

     Total force =     0.000848     Total SCF correction =     0.000000


     entering subroutine stress ...

          total   stress  (Ry/bohr**3)                   (kbar)     P= -114.20
  -0.00053652   0.00000000   0.00000000        -78.92      0.00      0.00
   0.00000000  -0.00053837   0.00000000          0.00    -79.20      0.00
   0.00000000   0.00000000  -0.00125399          0.00      0.00   -184.47


     Writing output data file Cu2N.save

     init_run     :      8.70s CPU      8.93s WALL (       2 calls)
     electrons    :   2129.52s CPU   2143.62s WALL (      19 calls)
     update_pot   :    147.61s CPU    149.79s WALL (      17 calls)
     forces       :     23.47s CPU     23.65s WALL (      19 calls)
     stress       :     55.97s CPU     56.60s WALL (      19 calls)

     Called by init_run:
     wfcinit      :      1.44s CPU      1.46s WALL (       2 calls)
     potinit      :      8.52s CPU      8.68s WALL (       3 calls)

     Called by electrons:
     c_bands      :    367.95s CPU    374.57s WALL (     272 calls)
     sum_band     :     51.48s CPU     52.27s WALL (     272 calls)
     v_of_rho     :     32.25s CPU     32.38s WALL (     292 calls)
     newd         :     16.81s CPU     16.89s WALL (     292 calls)
     PAW_pot      :   1903.36s CPU   1911.77s WALL (     309 calls)
     mix_rho      :      0.83s CPU      0.87s WALL (     272 calls)

     Called by c_bands:
     init_us_2    :      4.50s CPU      5.24s WALL (    9616 calls)
     cegterg      :    355.08s CPU    359.41s WALL (    4352 calls)

     Called by sum_band:
     sum_band:bec :      0.45s CPU      0.42s WALL (    4624 calls)
     addusdens    :     15.11s CPU     15.00s WALL (     272 calls)

     Called by *egterg:
     h_psi        :    166.48s CPU    171.34s WALL (   13525 calls)
     s_psi        :     45.64s CPU     46.01s WALL (   13525 calls)
     g_psi        :      0.83s CPU      0.80s WALL (    9141 calls)
     cdiaghg      :     28.08s CPU     27.94s WALL (   13221 calls)

     Called by h_psi:
     h_psi:pot    :    165.23s CPU    169.99s WALL (   13525 calls)
     h_psi:calbec :     45.88s CPU     46.54s WALL (   13525 calls)
     vloc_psi     :     74.72s CPU     77.54s WALL (   13525 calls)
     add_vuspsi   :     44.58s CPU     45.81s WALL (   13525 calls)

     General routines
     calbec       :     72.56s CPU     73.41s WALL (   19669 calls)
     fft          :      1.11s CPU      1.37s WALL (    8056 calls)
     fftw         :     77.20s CPU     79.09s WALL (  786034 calls)
     davcio       :      0.00s CPU      0.02s WALL (      32 calls)

     Parallel routines
     fft_scatter  :      6.41s CPU      7.25s WALL (  794090 calls)

     PWSCF        : 41m22.80s CPU    41m45.97s WALL


   This run was terminated on:  12:26:19   5Jun2020            

=------------------------------------------------------------------------------=
   JOB DONE.
=------------------------------------------------------------------------------=
