--------------------------------------------------------------------------
WARNING: Linux kernel CMA support was requested via the
btl_vader_single_copy_mechanism MCA variable, but CMA support is
not available due to restrictive ptrace settings.

The vader shared memory BTL will fall back on another single-copy
mechanism if one is available. This may result in lower performance.

  Local host: Rijuki
--------------------------------------------------------------------------

     Program BANDS v.6.0 (svn rev. 13079) starts on 23Apr2020 at 14:27:44 

     This program is part of the open-source Quantum ESPRESSO suite
     for quantum simulation of materials; please cite
         "P. Giannozzi et al., J. Phys.:Condens. Matter 21 395502 (2009);
          URL http://www.quantum-espresso.org", 
     in publications or presentations arising from this work. More details at
     http://www.quantum-espresso.org/quote

     Parallel version (MPI), running on    15 processors
     R & G space division:  proc/nbgrp/npool/nimage =      15

     Reading data from directory:
     ./tmp/Cu2N.save

   Info: using nr1, nr2, nr3 values from input

   Info: using nr1, nr2, nr3 values from input

     IMPORTANT: XC functional enforced from input :
     Exchange-correlation      =  SLA  PW   PBX  PBC ( 1  4  3  4 0 0)
     Any further DFT definition will be discarded
     Please, verify this is what you really want

               file Cu.pbe-dn-kjpaw_psl.1.0.0.UPF: wavefunction(s)  4S 3D renormalized
               file N.pbe-n-kjpaw_psl.1.0.0.UPF: wavefunction(s)  2S renormalized

     Parallelization info
     --------------------
     sticks:   dense  smooth     PW     G-vecs:    dense   smooth      PW
     Min          41      41     12                  788      788     128
     Max          43      43     13                  790      790     131
     Sum         633     633    185                11837    11837    1935

     Generating pointlists ...
     new r_m :   0.2062 (alat units)  1.4499 (a.u.) for type    1
     new r_m :   0.2062 (alat units)  1.4499 (a.u.) for type    2

     Check: negative/imaginary core charge=   -0.000013    0.000000
     high-symmetry point:  0.0000 0.0000 0.0000   x coordinate   0.0000
     high-symmetry point:  0.5000 0.0000 0.0000   x coordinate   0.5000
     high-symmetry point:  0.5000-0.5000 0.0000   x coordinate   1.0000
     high-symmetry point:  0.0000 0.0000 0.0000   x coordinate   1.7071

     Plottable bands (eV) written to file Cu2N.bands.gnu
     Bands written to file Cu2N.bands

 **************************************************************************

                    xk=(   0.00000,   0.00000,   0.00000  )

     point group O_h (m-3m) 
     there are 10 classes
     the character table:

       E     8C3   3C2   6C4   6C2'  i     8S6   3s_h  6S4   6s_d 
A_1g   1.00  1.00  1.00  1.00  1.00  1.00  1.00  1.00  1.00  1.00
A_2g   1.00  1.00  1.00 -1.00 -1.00  1.00  1.00  1.00 -1.00 -1.00
E_g    2.00 -1.00  2.00  0.00  0.00  2.00 -1.00  2.00  0.00  0.00
T_1g   3.00  0.00 -1.00  1.00 -1.00  3.00  0.00 -1.00  1.00 -1.00
T_2g   3.00  0.00 -1.00 -1.00  1.00  3.00  0.00 -1.00 -1.00  1.00
A_1u   1.00  1.00  1.00  1.00  1.00 -1.00 -1.00 -1.00 -1.00 -1.00
A_2u   1.00  1.00  1.00 -1.00 -1.00 -1.00 -1.00 -1.00  1.00  1.00
E_u    2.00 -1.00  2.00  0.00  0.00 -2.00  1.00 -2.00  0.00  0.00
T_1u   3.00  0.00 -1.00  1.00 -1.00 -3.00  0.00  1.00 -1.00  1.00
T_2u   3.00  0.00 -1.00 -1.00  1.00 -3.00  0.00  1.00  1.00 -1.00

     the symmetry operations in each class and the name of the first element:

     E        1
                                                                 
     8C3     17   19   20   18   24   21   22   23
                                                                 
     3C2      2    4    3
                                                                 
     6C4      7    8   15   16   12   11
                                                                 
     6C2'     5    6   14   13   10    9
                                                                 
     i       25
                                                                 
     8S6     41   43   44   42   48   45   46   47
                                                                 
     3s_h    26   28   27
                                                                 
     6S4     31   32   39   40   36   35
                                                                 
     6s_d    29   30   38   37   34   33
                                                                 

     Band symmetry, O_h (m-3m)  point group:

     e(  1 -  1) =     -4.40997  eV     1   --> A_1g G_1   G_1+
     e(  2 -  2) =      5.78227  eV     1   --> A_1g G_1   G_1+
     e(  3 -  5) =      7.86505  eV     3   --> T_1u G_15  G_4-
     e(  6 -  8) =      8.58118  eV     3   --> T_2g G_25' G_5+
     e(  9 - 10) =      8.59158  eV     2   --> E_g  G_12  G_3+
     e( 11 - 13) =     10.09123  eV     3   --> T_2g G_25' G_5+
     e( 14 - 15) =     10.25614  eV     2   --> E_g  G_12  G_3+
     e( 16 - 18) =     11.10217  eV     3   --> T_1g G_15' G_4+
     e( 19 - 19) =     11.23109  eV     1   --> A_2g G_2   G_2+
     e( 20 - 20) =     11.65630  eV     1   -->   ?

 **************************************************************************

 **************************************************************************

                    xk=(   0.01667,   0.00000,   0.00000  )

     point group C_4v (4mm) 
     there are  5 classes
     the character table:

       E     2C4   C2    2s_v  2s_d 
A_1    1.00  1.00  1.00  1.00  1.00
A_2    1.00  1.00  1.00 -1.00 -1.00
B_1    1.00 -1.00  1.00  1.00 -1.00
B_2    1.00 -1.00  1.00 -1.00  1.00
E      2.00  0.00 -2.00  0.00  0.00

     the symmetry operations in each class and the name of the first element:

     E        1
                                                                 
     2C4      3    4
                                                                 
     C2       2
                                                                 
     2s_v     5    6
                                                                 
     2s_d     7    8
                                                                 

     Band symmetry, C_4v (4mm)  point group:

     e(  1 -  1) =     -4.40867  eV     1   --> A_1  G_1 D_1   
     e(  2 -  2) =      5.78322  eV     1   --> A_1  G_1 D_1   
     e(  3 -  3) =      7.85368  eV     1   --> A_1  G_1 D_1   
     e(  4 -  5) =      7.86053  eV     2   --> E    G_5 D_5   
     e(  6 -  6) =      8.58220  eV     1   --> B_2  G_4 D_2'  
     e(  7 -  8) =      8.58664  eV     2   --> E    G_5 D_5   
     e(  9 -  9) =      8.59332  eV     1   -->   ?
     e( 10 - 10) =      8.59352  eV     1   -->   ?
     e( 11 - 11) =     10.09049  eV     1   --> B_2  G_4 D_2'  
     e( 12 - 13) =     10.09215  eV     2   --> E    G_5 D_5   
     e( 14 - 14) =     10.25626  eV     1   --> B_1  G_3 D_2   
     e( 15 - 15) =     10.26143  eV     1   --> A_1  G_1 D_1   
     e( 16 - 16) =     11.10230  eV     1   --> A_2  G_2 D_1'  
     e( 17 - 18) =     11.10317  eV     2   --> E    G_5 D_5   
     e( 19 - 19) =     11.23033  eV     1   --> B_1  G_3 D_2   
     e( 20 - 20) =     11.65595  eV     1   -->   ?

 **************************************************************************

 **************************************************************************

                    xk=(   0.03333,   0.00000,   0.00000  )

     Band symmetry, C_4v (4mm)  point group:

     e(  1 -  1) =     -4.40493  eV     1   --> A_1  G_1 D_1   
     e(  2 -  2) =      5.78585  eV     1   --> A_1  G_1 D_1   
     e(  3 -  3) =      7.81839  eV     1   --> A_1  G_1 D_1   
     e(  4 -  5) =      7.84569  eV     2   --> E    G_5 D_5   
     e(  6 -  6) =      8.58430  eV     1   --> B_2  G_4 D_2'  
     e(  7 -  7) =      8.59799  eV     1   -->   ?
     e(  8 -  8) =      8.59876  eV     1   -->   ?
     e(  9 - 10) =      8.60107  eV     2   --> E    G_5 D_5   
     e( 11 - 11) =     10.08819  eV     1   --> B_2  G_4 D_2'  
     e( 12 - 13) =     10.09474  eV     2   --> E    G_5 D_5   
     e( 14 - 14) =     10.25653  eV     1   --> B_1  G_3 D_2   
     e( 15 - 15) =     10.27650  eV     1   --> A_1  G_1 D_1   
     e( 16 - 16) =     11.10231  eV     1   --> A_2  G_2 D_1'  
     e( 17 - 18) =     11.10590  eV     2   --> E    G_5 D_5   
     e( 19 - 19) =     11.22791  eV     1   --> B_1  G_3 D_2   
     e( 20 - 20) =     11.65480  eV     1   --> B_1  G_3 D_2   

 **************************************************************************

 **************************************************************************

                    xk=(   0.05000,   0.00000,   0.00000  )

     Band symmetry, C_4v (4mm)  point group:

     e(  1 -  1) =     -4.39870  eV     1   --> A_1  G_1 D_1   
     e(  2 -  2) =      5.78995  eV     1   --> A_1  G_1 D_1   
     e(  3 -  3) =      7.76280  eV     1   --> A_1  G_1 D_1   
     e(  4 -  5) =      7.82244  eV     2   --> E    G_5 D_5   
     e(  6 -  6) =      8.58780  eV     1   --> B_2  G_4 D_2'  
     e(  7 -  7) =      8.60581  eV     1   -->   ?
     e(  8 -  8) =      8.60645  eV     1   -->   ?
     e(  9 - 10) =      8.62372  eV     2   --> E    G_5 D_5   
     e( 11 - 11) =     10.08437  eV     1   --> B_2  G_4 D_2'  
     e( 12 - 13) =     10.09904  eV     2   --> E    G_5 D_5   
     e( 14 - 14) =     10.25700  eV     1   --> B_1  G_3 D_2   
     e( 15 - 15) =     10.29986  eV     1   --> A_1  G_1 D_1   
     e( 16 - 16) =     11.10232  eV     1   --> A_2  G_2 D_1'  
     e( 17 - 18) =     11.11046  eV     2   --> E    G_5 D_5   
     e( 19 - 19) =     11.22388  eV     1   --> B_1  G_3 D_2   
     e( 20 - 20) =     11.65293  eV     1   --> B_1  G_3 D_2   

 **************************************************************************

 **************************************************************************

                    xk=(   0.06667,   0.00000,   0.00000  )

     Band symmetry, C_4v (4mm)  point group:

     e(  1 -  1) =     -4.39007  eV     1   --> A_1  G_1 D_1   
     e(  2 -  2) =      5.79502  eV     1   --> A_1  G_1 D_1   
     e(  3 -  3) =      7.69076  eV     1   --> A_1  G_1 D_1   
     e(  4 -  5) =      7.79221  eV     2   --> E    G_5 D_5   
     e(  6 -  6) =      8.59266  eV     1   --> B_2  G_4 D_2'  
     e(  7 -  7) =      8.61546  eV     1   -->   ?
     e(  8 -  8) =      8.61660  eV     1   -->   ?
     e(  9 - 10) =      8.65293  eV     2   --> E    G_5 D_5   
     e( 11 - 11) =     10.07904  eV     1   --> B_2  G_4 D_2'  
     e( 12 - 13) =     10.10500  eV     2   --> E    G_5 D_5   
     e( 14 - 14) =     10.25760  eV     1   --> B_1  G_3 D_2   
     e( 15 - 15) =     10.32916  eV     1   --> A_1  G_1 D_1   
     e( 16 - 16) =     11.10234  eV     1   --> A_2  G_2 D_1'  
     e( 17 - 18) =     11.11682  eV     2   --> E    G_5 D_5   
     e( 19 - 19) =     11.21819  eV     1   --> B_1  G_3 D_2   
     e( 20 - 20) =     11.65031  eV     1   --> B_1  G_3 D_2   

 **************************************************************************

 **************************************************************************

                    xk=(   0.08333,   0.00000,   0.00000  )

     Band symmetry, C_4v (4mm)  point group:

     e(  1 -  1) =     -4.37906  eV     1   --> A_1  G_1 D_1   
     e(  2 -  2) =      5.80040  eV     1   --> A_1  G_1 D_1   
     e(  3 -  3) =      7.60622  eV     1   --> A_1  G_1 D_1   
     e(  4 -  5) =      7.75677  eV     2   --> E    G_5 D_5   
     e(  6 -  6) =      8.59888  eV     1   --> B_2  G_4 D_2'  
     e(  7 -  7) =      8.62507  eV     1   --> A_1  G_1 D_1   
     e(  8 -  8) =      8.63039  eV     1   --> B_1  G_3 D_2   
     e(  9 - 10) =      8.68701  eV     2   --> E    G_5 D_5   
     e( 11 - 11) =     10.07224  eV     1   --> B_2  G_4 D_2'  
     e( 12 - 13) =     10.11257  eV     2   --> E    G_5 D_5   
     e( 14 - 14) =     10.25836  eV     1   --> B_1  G_3 D_2   
     e( 15 - 15) =     10.36169  eV     1   --> A_1  G_1 D_1   
     e( 16 - 16) =     11.10236  eV     1   --> A_2  G_2 D_1'  
     e( 17 - 18) =     11.12497  eV     2   --> E    G_5 D_5   
     e( 19 - 19) =     11.21085  eV     1   --> B_1  G_3 D_2   
     e( 20 - 20) =     11.64701  eV     1   --> B_1  G_3 D_2   

 **************************************************************************

 **************************************************************************

                    xk=(   0.10000,   0.00000,   0.00000  )

     Band symmetry, C_4v (4mm)  point group:

     e(  1 -  1) =     -4.36579  eV     1   --> A_1  G_1 D_1   
     e(  2 -  2) =      5.80505  eV     1   --> A_1  G_1 D_1   
     e(  3 -  3) =      7.51435  eV     1   --> A_1  G_1 D_1   
     e(  4 -  5) =      7.71755  eV     2   --> E    G_5 D_5   
     e(  6 -  6) =      8.60641  eV     1   --> B_2  G_4 D_2'  
     e(  7 -  7) =      8.63458  eV     1   --> A_1  G_1 D_1   
     e(  8 -  8) =      8.64713  eV     1   --> B_1  G_3 D_2   
     e(  9 - 10) =      8.72457  eV     2   --> E    G_5 D_5   
     e( 11 - 11) =     10.06399  eV     1   --> B_2  G_4 D_2'  
     e( 12 - 13) =     10.12147  eV     2   --> E    G_5 D_5   
     e( 14 - 14) =     10.25918  eV     1   --> B_1  G_3 D_2   
     e( 15 - 15) =     10.39512  eV     1   --> A_1  G_1 D_1   
     e( 16 - 16) =     11.10239  eV     1   --> A_2  G_2 D_1'  
     e( 17 - 18) =     11.13492  eV     2   --> E    G_5 D_5   
     e( 19 - 19) =     11.20190  eV     1   --> B_1  G_3 D_2   
     e( 20 - 20) =     11.64306  eV     1   --> B_1  G_3 D_2   

 **************************************************************************

 **************************************************************************

                    xk=(   0.11667,   0.00000,   0.00000  )

     Band symmetry, C_4v (4mm)  point group:

     e(  1 -  1) =     -4.35039  eV     1   --> A_1  G_1 D_1   
     e(  2 -  2) =      5.80768  eV     1   --> A_1  G_1 D_1   
     e(  3 -  3) =      7.41863  eV     1   --> A_1  G_1 D_1   
     e(  4 -  5) =      7.67587  eV     2   --> E    G_5 D_5   
     e(  6 -  6) =      8.61522  eV     1   --> B_2  G_4 D_2'  
     e(  7 -  7) =      8.64371  eV     1   --> A_1  G_1 D_1   
     e(  8 -  8) =      8.66669  eV     1   --> B_1  G_3 D_2   
     e(  9 - 10) =      8.76416  eV     2   --> E    G_5 D_5   
     e( 11 - 11) =     10.05436  eV     1   --> B_2  G_4 D_2'  
     e( 12 - 13) =     10.13210  eV     2   --> E    G_5 D_5   
     e( 14 - 14) =     10.26017  eV     1   --> B_1  G_3 D_2   
     e( 15 - 15) =     10.42703  eV     1   --> A_1  G_1 D_1   
     e( 16 - 16) =     11.10242  eV     1   --> A_2  G_2 D_1'  
     e( 17 - 18) =     11.14657  eV     2   --> E    G_5 D_5   
     e( 19 - 19) =     11.19126  eV     1   --> B_1  G_3 D_2   
     e( 20 - 20) =     11.63857  eV     1   --> B_1  G_3 D_2   

 **************************************************************************

 **************************************************************************

                    xk=(   0.13333,   0.00000,   0.00000  )

     Band symmetry, C_4v (4mm)  point group:

     e(  1 -  1) =     -4.33296  eV     1   --> A_1  G_1 D_1   
     e(  2 -  2) =      5.80655  eV     1   --> A_1  G_1 D_1   
     e(  3 -  3) =      7.32365  eV     1   --> A_1  G_1 D_1   
     e(  4 -  5) =      7.63267  eV     2   --> E    G_5 D_5   
     e(  6 -  6) =      8.62526  eV     1   --> B_2  G_4 D_2'  
     e(  7 -  7) =      8.65225  eV     1   --> A_1  G_1 D_1   
     e(  8 -  8) =      8.68899  eV     1   --> B_1  G_3 D_2   
     e(  9 - 10) =      8.80487  eV     2   --> E    G_5 D_5   
     e( 11 - 11) =     10.04340  eV     1   --> B_2  G_4 D_2'  
     e( 12 - 13) =     10.14411  eV     2   --> E    G_5 D_5   
     e( 14 - 14) =     10.26123  eV     1   --> B_1  G_3 D_2   
     e( 15 - 15) =     10.45554  eV     1   --> A_1  G_1 D_1   
     e( 16 - 16) =     11.10245  eV     1   --> A_2  G_2 D_1'  
     e( 17 - 18) =     11.15987  eV     2   --> E    G_5 D_5   
     e( 19 - 19) =     11.17897  eV     1   --> B_1  G_3 D_2   
     e( 20 - 20) =     11.63358  eV     1   --> B_1  G_3 D_2   

 **************************************************************************

 **************************************************************************

                    xk=(   0.15000,   0.00000,   0.00000  )

     Band symmetry, C_4v (4mm)  point group:

     e(  1 -  1) =     -4.31365  eV     1   --> A_1  G_1 D_1   
     e(  2 -  2) =      5.79954  eV     1   --> A_1  G_1 D_1   
     e(  3 -  3) =      7.23372  eV     1   --> A_1  G_1 D_1   
     e(  4 -  5) =      7.58872  eV     2   --> E    G_5 D_5   
     e(  6 -  6) =      8.63648  eV     1   --> B_2  G_4 D_2'  
     e(  7 -  7) =      8.66003  eV     1   --> A_1  G_1 D_1   
     e(  8 -  8) =      8.71391  eV     1   --> B_1  G_3 D_2   
     e(  9 - 10) =      8.84592  eV     2   --> E    G_5 D_5   
     e( 11 - 11) =     10.03117  eV     1   --> B_2  G_4 D_2'  
     e( 12 - 13) =     10.15741  eV     2   --> E    G_5 D_5   
     e( 14 - 14) =     10.26235  eV     1   --> B_1  G_3 D_2   
     e( 15 - 15) =     10.47926  eV     1   --> A_1  G_1 D_1   
     e( 16 - 16) =     11.10248  eV     1   --> A_2  G_2 D_1'  
     e( 17 - 17) =     11.16504  eV     1   --> B_1  G_3 D_2   
     e( 18 - 19) =     11.17473  eV     2   --> E    G_5 D_5   
     e( 20 - 20) =     11.62817  eV     1   --> B_1  G_3 D_2   

 **************************************************************************

 **************************************************************************

                    xk=(   0.16667,   0.00000,   0.00000  )

     Band symmetry, C_4v (4mm)  point group:

     e(  1 -  1) =     -4.29261  eV     1   --> A_1  G_1 D_1   
     e(  2 -  2) =      5.78422  eV     1   --> A_1  G_1 D_1   
     e(  3 -  3) =      7.15310  eV     1   --> A_1  G_1 D_1   
     e(  4 -  5) =      7.54456  eV     2   --> E    G_5 D_5   
     e(  6 -  6) =      8.64882  eV     1   --> B_2  G_4 D_2'  
     e(  7 -  7) =      8.66684  eV     1   --> A_1  G_1 D_1   
     e(  8 -  8) =      8.74132  eV     1   --> B_1  G_3 D_2   
     e(  9 - 10) =      8.88669  eV     2   --> E    G_5 D_5   
     e( 11 - 11) =     10.01773  eV     1   --> B_2  G_4 D_2'  
     e( 12 - 13) =     10.17178  eV     2   --> E    G_5 D_5   
     e( 14 - 14) =     10.26346  eV     1   --> B_1  G_3 D_2   
     e( 15 - 15) =     10.49719  eV     1   --> A_1  G_1 D_1   
     e( 16 - 16) =     11.10251  eV     1   --> A_2  G_2 D_1'  
     e( 17 - 17) =     11.14948  eV     1   --> B_1  G_3 D_2   
     e( 18 - 19) =     11.19099  eV     2   --> E    G_5 D_5   
     e( 20 - 20) =     11.62240  eV     1   --> B_1  G_3 D_2   

 **************************************************************************

 **************************************************************************

                    xk=(   0.18333,   0.00000,   0.00000  )

     Band symmetry, C_4v (4mm)  point group:

     e(  1 -  1) =     -4.27001  eV     1   --> A_1  G_1 D_1   
     e(  2 -  2) =      5.75823  eV     1   --> A_1  G_1 D_1   
     e(  3 -  3) =      7.08599  eV     1   --> A_1  G_1 D_1   
     e(  4 -  5) =      7.50107  eV     2   --> E    G_5 D_5   
     e(  6 -  6) =      8.66243  eV     1   --> B_2  G_4 D_2'  
     e(  7 -  7) =      8.67254  eV     1   --> A_1  G_1 D_1   
     e(  8 -  8) =      8.77106  eV     1   --> B_1  G_3 D_2   
     e(  9 - 10) =      8.92675  eV     2   --> E    G_5 D_5   
     e( 11 - 11) =     10.00320  eV     1   --> B_2  G_4 D_2'  
     e( 12 - 13) =     10.18731  eV     2   --> E    G_5 D_5   
     e( 14 - 14) =     10.26456  eV     1   --> B_1  G_3 D_2   
     e( 15 - 15) =     10.50900  eV     1   --> A_1  G_1 D_1   
     e( 16 - 16) =     11.10254  eV     1   --> A_2  G_2 D_1'  
     e( 17 - 17) =     11.13236  eV     1   --> B_1  G_3 D_2   
     e( 18 - 19) =     11.20845  eV     2   --> E    G_5 D_5   
     e( 20 - 20) =     11.61641  eV     1   --> B_1  G_3 D_2   

 **************************************************************************

 **************************************************************************

                    xk=(   0.20000,   0.00000,   0.00000  )

     Band symmetry, C_4v (4mm)  point group:

     e(  1 -  1) =     -4.24612  eV     1   --> A_1  G_1 D_1   
     e(  2 -  2) =      5.71971  eV     1   --> A_1  G_1 D_1   
     e(  3 -  3) =      7.03536  eV     1   --> A_1  G_1 D_1   
     e(  4 -  5) =      7.45811  eV     2   --> E    G_5 D_5   
     e(  6 -  7) =      8.67674  eV     2   --> A_1  G_1 D_1   
     e(  6 -  7) =      8.67674  eV     2   --> B_2  G_4 D_2'  
     e(  8 -  8) =      8.80296  eV     1   --> B_1  G_3 D_2   
     e(  9 - 10) =      8.96561  eV     2   --> E    G_5 D_5   
     e( 11 - 11) =      9.98764  eV     1   --> B_2  G_4 D_2'  
     e( 12 - 13) =     10.20376  eV     2   --> E    G_5 D_5   
     e( 14 - 14) =     10.26557  eV     1   --> B_1  G_3 D_2   
     e( 15 - 15) =     10.51446  eV     1   --> A_1  G_1 D_1   
     e( 16 - 16) =     11.10258  eV     1   --> A_2  G_2 D_1'  
     e( 17 - 17) =     11.11369  eV     1   --> B_1  G_3 D_2   
     e( 18 - 19) =     11.22682  eV     2   --> E    G_5 D_5   
     e( 20 - 20) =     11.61020  eV     1   --> B_1  G_3 D_2   

 **************************************************************************

 **************************************************************************

                    xk=(   0.21667,   0.00000,   0.00000  )

     Band symmetry, C_4v (4mm)  point group:

     e(  1 -  1) =     -4.22120  eV     1   --> A_1  G_1 D_1   
     e(  2 -  2) =      5.66794  eV     1   --> A_1  G_1 D_1   
     e(  3 -  3) =      7.00297  eV     1   --> A_1  G_1 D_1   
     e(  4 -  5) =      7.41626  eV     2   --> E    G_5 D_5   
     e(  6 -  6) =      8.67880  eV     1   --> A_1  G_1 D_1   
     e(  7 -  7) =      8.69197  eV     1   --> B_2  G_4 D_2'  
     e(  8 -  8) =      8.83682  eV     1   --> B_1  G_3 D_2   
     e(  9 - 10) =      9.00303  eV     2   --> E    G_5 D_5   
     e( 11 - 11) =      9.97116  eV     1   --> B_2  G_4 D_2'  
     e( 12 - 13) =     10.22099  eV     2   --> E    G_5 D_5   
     e( 14 - 14) =     10.26645  eV     1   --> B_1  G_3 D_2   
     e( 15 - 15) =     10.51371  eV     1   --> A_1  G_1 D_1   
     e( 16 - 16) =     11.09358  eV     1   --> B_1  G_3 D_2   
     e( 17 - 17) =     11.10261  eV     1   --> A_2  G_2 D_1'  
     e( 18 - 19) =     11.24567  eV     2   --> E    G_5 D_5   
     e( 20 - 20) =     11.60387  eV     1   --> B_1  G_3 D_2   

 **************************************************************************

 **************************************************************************

                    xk=(   0.23333,   0.00000,   0.00000  )

     Band symmetry, C_4v (4mm)  point group:

     e(  1 -  1) =     -4.19533  eV     1   --> A_1  G_1 D_1   
     e(  2 -  2) =      5.60362  eV     1   --> A_1  G_1 D_1   
     e(  3 -  3) =      6.98966  eV     1   --> A_1  G_1 D_1   
     e(  4 -  5) =      7.37577  eV     2   --> E    G_5 D_5   
     e(  6 -  6) =      8.67911  eV     1   --> A_1  G_1 D_1   
     e(  7 -  7) =      8.70794  eV     1   --> B_2  G_4 D_2'  
     e(  8 -  8) =      8.87242  eV     1   --> B_1  G_3 D_2   
     e(  9 - 10) =      9.03880  eV     2   --> E    G_5 D_5   
     e( 11 - 11) =      9.95389  eV     1   --> B_2  G_4 D_2'  
     e( 12 - 13) =     10.23888  eV     2   --> E    G_5 D_5   
     e( 14 - 14) =     10.26713  eV     1   --> B_1  G_3 D_2   
     e( 15 - 15) =     10.50715  eV     1   --> A_1  G_1 D_1   
     e( 16 - 16) =     11.07214  eV     1   --> B_1  G_3 D_2   
     e( 17 - 17) =     11.10265  eV     1   --> A_2  G_2 D_1'  
     e( 18 - 19) =     11.26446  eV     2   --> E    G_5 D_5   
     e( 20 - 20) =     11.59751  eV     1   --> B_1  G_3 D_2   

 **************************************************************************

 **************************************************************************

                    xk=(   0.25000,   0.00000,   0.00000  )

     Band symmetry, C_4v (4mm)  point group:

     e(  1 -  1) =     -4.16895  eV     1   --> A_1  G_1 D_1   
     e(  2 -  2) =      5.52858  eV     1   --> A_1  G_1 D_1   
     e(  3 -  3) =      6.99404  eV     1   --> A_1  G_1 D_1   
     e(  4 -  5) =      7.33640  eV     2   --> E    G_5 D_5   
     e(  6 -  6) =      8.67679  eV     1   --> A_1  G_1 D_1   
     e(  7 -  7) =      8.72455  eV     1   --> B_2  G_4 D_2'  
     e(  8 -  8) =      8.90937  eV     1   --> B_1  G_3 D_2   
     e(  9 - 10) =      9.07254  eV     2   --> E    G_5 D_5   
     e( 11 - 11) =      9.93596  eV     1   --> B_2  G_4 D_2'  
     e( 12 - 13) =     10.25720  eV     2   --> E    G_5 D_5   
     e( 14 - 14) =     10.26752  eV     1   --> B_1  G_3 D_2   
     e( 15 - 15) =     10.49530  eV     1   --> A_1  G_1 D_1   
     e( 16 - 16) =     11.04950  eV     1   --> B_1  G_3 D_2   
     e( 17 - 17) =     11.10268  eV     1   --> A_2  G_2 D_1'  
     e( 18 - 19) =     11.28232  eV     2   --> E    G_5 D_5   
     e( 20 - 20) =     11.59116  eV     1   --> B_1  G_3 D_2   

 **************************************************************************

 **************************************************************************

                    xk=(   0.26667,   0.00000,   0.00000  )

     Band symmetry, C_4v (4mm)  point group:

     e(  1 -  1) =     -4.14207  eV     1   --> A_1  G_1 D_1   
     e(  2 -  2) =      5.44592  eV     1   --> A_1  G_1 D_1   
     e(  3 -  3) =      7.01430  eV     1   --> A_1  G_1 D_1   
     e(  4 -  5) =      7.29958  eV     2   --> E    G_5 D_5   
     e(  6 -  6) =      8.67175  eV     1   --> A_1  G_1 D_1   
     e(  7 -  7) =      8.74211  eV     1   --> B_2  G_4 D_2'  
     e(  8 -  8) =      8.94771  eV     1   --> B_1  G_3 D_2   
     e(  9 - 10) =      9.10477  eV     2   --> E    G_5 D_5   
     e( 11 - 11) =      9.91769  eV     1   --> B_2  G_4 D_2'  
     e( 12 - 12) =     10.26777  eV     1   --> B_1  G_3 D_2   
     e( 13 - 14) =     10.27614  eV     2   --> E    G_5 D_5   
     e( 15 - 15) =     10.47888  eV     1   --> A_1  G_1 D_1   
     e( 16 - 16) =     11.02594  eV     1   --> B_1  G_3 D_2   
     e( 17 - 17) =     11.10277  eV     1   --> A_2  G_2 D_1'  
     e( 18 - 19) =     11.29823  eV     2   --> E    G_5 D_5   
     e( 20 - 20) =     11.58509  eV     1   --> B_1  G_3 D_2   

 **************************************************************************

 **************************************************************************

                    xk=(   0.28333,   0.00000,   0.00000  )

     Band symmetry, C_4v (4mm)  point group:

     e(  1 -  1) =     -4.11524  eV     1   --> A_1  G_1 D_1   
     e(  2 -  2) =      5.35837  eV     1   --> A_1  G_1 D_1   
     e(  3 -  3) =      7.04791  eV     1   --> A_1  G_1 D_1   
     e(  4 -  5) =      7.26444  eV     2   --> E    G_5 D_5   
     e(  6 -  6) =      8.66286  eV     1   --> A_1  G_1 D_1   
     e(  7 -  7) =      8.75959  eV     1   --> B_2  G_4 D_2'  
     e(  8 -  8) =      8.98690  eV     1   --> B_1  G_3 D_2   
     e(  9 - 10) =      9.13470  eV     2   --> E    G_5 D_5   
     e( 11 - 11) =      9.89890  eV     1   --> B_2  G_4 D_2'  
     e( 12 - 12) =     10.26753  eV     1   --> B_1  G_3 D_2   
     e( 13 - 14) =     10.29521  eV     2   --> E    G_5 D_5   
     e( 15 - 15) =     10.45860  eV     1   --> A_1  G_1 D_1   
     e( 16 - 16) =     11.00152  eV     1   --> B_1  G_3 D_2   
     e( 17 - 17) =     11.10281  eV     1   --> A_2  G_2 D_1'  
     e( 18 - 19) =     11.31029  eV     2   --> E    G_5 D_5   
     e( 20 - 20) =     11.57904  eV     1   --> B_1  G_3 D_2   

 **************************************************************************

 **************************************************************************

                    xk=(   0.30000,   0.00000,   0.00000  )

     Band symmetry, C_4v (4mm)  point group:

     e(  1 -  1) =     -4.08868  eV     1   --> A_1  G_1 D_1   
     e(  2 -  2) =      5.26832  eV     1   --> A_1  G_1 D_1   
     e(  3 -  3) =      7.09234  eV     1   --> A_1  G_1 D_1   
     e(  4 -  5) =      7.23141  eV     2   --> E    G_5 D_5   
     e(  6 -  6) =      8.64986  eV     1   --> A_1  G_1 D_1   
     e(  7 -  7) =      8.77726  eV     1   --> B_2  G_4 D_2'  
     e(  8 -  8) =      9.02659  eV     1   --> B_1  G_3 D_2   
     e(  9 - 10) =      9.16248  eV     2   --> E    G_5 D_5   
     e( 11 - 11) =      9.87994  eV     1   --> B_2  G_4 D_2'  
     e( 12 - 12) =     10.26683  eV     1   --> B_1  G_3 D_2   
     e( 13 - 14) =     10.31440  eV     2   --> E    G_5 D_5   
     e( 15 - 15) =     10.43533  eV     1   --> A_1  G_1 D_1   
     e( 16 - 16) =     10.97651  eV     1   --> B_1  G_3 D_2   
     e( 17 - 17) =     11.10284  eV     1   --> A_2  G_2 D_1'  
     e( 18 - 19) =     11.31663  eV     2   --> E    G_5 D_5   
     e( 20 - 20) =     11.56519  eV     1   -->   ?

 **************************************************************************

 **************************************************************************

                    xk=(   0.31667,   0.00000,   0.00000  )

     Band symmetry, C_4v (4mm)  point group:

     e(  1 -  1) =     -4.06267  eV     1   --> A_1  G_1 D_1   
     e(  2 -  2) =      5.17901  eV     1   --> A_1  G_1 D_1   
     e(  3 -  3) =      7.14645  eV     1   --> A_1  G_1 D_1   
     e(  4 -  5) =      7.20063  eV     2   --> E    G_5 D_5   
     e(  6 -  6) =      8.63224  eV     1   --> A_1  G_1 D_1   
     e(  7 -  7) =      8.79494  eV     1   --> B_2  G_4 D_2'  
     e(  8 -  8) =      9.06649  eV     1   --> B_1  G_3 D_2   
     e(  9 - 10) =      9.18812  eV     2   --> E    G_5 D_5   
     e( 11 - 11) =      9.86101  eV     1   --> B_2  G_4 D_2'  
     e( 12 - 12) =     10.26565  eV     1   --> B_1  G_3 D_2   
     e( 13 - 14) =     10.33357  eV     2   --> E    G_5 D_5   
     e( 15 - 15) =     10.41000  eV     1   --> A_1  G_1 D_1   
     e( 16 - 16) =     10.95135  eV     1   --> B_1  G_3 D_2   
     e( 17 - 17) =     11.10288  eV     1   --> A_2  G_2 D_1'  
     e( 18 - 19) =     11.31550  eV     2   --> E    G_5 D_5   
     e( 20 - 20) =     11.55520  eV     1   -->   ?

 **************************************************************************

 **************************************************************************

                    xk=(   0.33333,   0.00000,   0.00000  )

     Band symmetry, C_4v (4mm)  point group:

     e(  1 -  1) =     -4.03742  eV     1   --> A_1  G_1 D_1   
     e(  2 -  2) =      5.09233  eV     1   --> A_1  G_1 D_1   
     e(  3 -  4) =      7.17220  eV     2   --> E    G_5 D_5   
     e(  5 -  5) =      7.20847  eV     1   --> A_1  G_1 D_1   
     e(  6 -  6) =      8.60984  eV     1   --> A_1  G_1 D_1   
     e(  7 -  7) =      8.81243  eV     1   --> B_2  G_4 D_2'  
     e(  8 -  8) =      9.10609  eV     1   --> B_1  G_3 D_2   
     e(  9 - 10) =      9.21157  eV     2   --> E    G_5 D_5   
     e( 11 - 11) =      9.84233  eV     1   --> B_2  G_4 D_2'  
     e( 12 - 12) =     10.26394  eV     1   --> B_1  G_3 D_2   
     e( 13 - 14) =     10.35256  eV     2   --> E    G_5 D_5   
     e( 15 - 15) =     10.38361  eV     1   --> A_1  G_1 D_1   
     e( 16 - 16) =     10.92633  eV     1   --> B_1  G_3 D_2   
     e( 17 - 17) =     11.10291  eV     1   --> A_2  G_2 D_1'  
     e( 18 - 19) =     11.30655  eV     2   --> E    G_5 D_5   
     e( 20 - 20) =     11.54685  eV     1   --> A_1  G_1 D_1   

 **************************************************************************

 **************************************************************************

                    xk=(   0.35000,   0.00000,   0.00000  )

     Band symmetry, C_4v (4mm)  point group:

     e(  1 -  1) =     -4.01355  eV     1   --> A_1  G_1 D_1   
     e(  2 -  2) =      5.00947  eV     1   --> A_1  G_1 D_1   
     e(  3 -  4) =      7.14614  eV     2   --> E    G_5 D_5   
     e(  5 -  5) =      7.27621  eV     1   --> A_1  G_1 D_1   
     e(  6 -  6) =      8.58151  eV     1   --> A_1  G_1 D_1   
     e(  7 -  7) =      8.82946  eV     1   --> B_2  G_4 D_2'  
     e(  8 -  8) =      9.14492  eV     1   --> B_1  G_3 D_2   
     e(  9 - 10) =      9.23281  eV     2   --> E    G_5 D_5   
     e( 11 - 11) =      9.82414  eV     1   --> B_2  G_4 D_2'  
     e( 12 - 12) =     10.26167  eV     1   --> B_1  G_3 D_2   
     e( 13 - 13) =     10.35690  eV     1   --> A_1  G_1 D_1   
     e( 14 - 15) =     10.37116  eV     2   --> E    G_5 D_5   
     e( 16 - 16) =     10.90183  eV     1   --> B_1  G_3 D_2   
     e( 17 - 17) =     11.10294  eV     1   --> A_2  G_2 D_1'  
     e( 18 - 19) =     11.29092  eV     2   --> E    G_5 D_5   
     e( 20 - 20) =     11.52985  eV     1   --> A_1  G_1 D_1   

 **************************************************************************

 **************************************************************************

                    xk=(   0.36667,   0.00000,   0.00000  )

     Band symmetry, C_4v (4mm)  point group:

     e(  1 -  1) =     -3.99115  eV     1   --> A_1  G_1 D_1   
     e(  2 -  2) =      4.93222  eV     1   --> A_1  G_1 D_1   
     e(  3 -  4) =      7.12268  eV     2   --> E    G_5 D_5   
     e(  5 -  5) =      7.34878  eV     1   --> A_1  G_1 D_1   
     e(  6 -  6) =      8.54737  eV     1   --> A_1  G_1 D_1   
     e(  7 -  7) =      8.84585  eV     1   --> B_2  G_4 D_2'  
     e(  8 -  8) =      9.18241  eV     1   --> B_1  G_3 D_2   
     e(  9 - 10) =      9.25182  eV     2   --> E    G_5 D_5   
     e( 11 - 11) =      9.80670  eV     1   --> B_2  G_4 D_2'  
     e( 12 - 12) =     10.25885  eV     1   --> B_1  G_3 D_2   
     e( 13 - 13) =     10.33085  eV     1   --> A_1  G_1 D_1   
     e( 14 - 15) =     10.38919  eV     2   --> E    G_5 D_5   
     e( 16 - 16) =     10.87826  eV     1   --> B_1  G_3 D_2   
     e( 17 - 17) =     11.10297  eV     1   --> A_2  G_2 D_1'  
     e( 18 - 19) =     11.27107  eV     2   --> E    G_5 D_5   
     e( 20 - 20) =     11.51323  eV     1   --> A_1  G_1 D_1   

 **************************************************************************

 **************************************************************************

                    xk=(   0.38333,   0.00000,   0.00000  )

     Band symmetry, C_4v (4mm)  point group:

     e(  1 -  1) =     -3.97055  eV     1   --> A_1  G_1 D_1   
     e(  2 -  2) =      4.86165  eV     1   --> A_1  G_1 D_1   
     e(  3 -  4) =      7.10182  eV     2   --> E    G_5 D_5   
     e(  5 -  5) =      7.42501  eV     1   --> A_1  G_1 D_1   
     e(  6 -  6) =      8.50728  eV     1   --> A_1  G_1 D_1   
     e(  7 -  7) =      8.86129  eV     1   --> B_2  G_4 D_2'  
     e(  8 -  8) =      9.21798  eV     1   --> B_1  G_3 D_2   
     e(  9 - 10) =      9.26860  eV     2   --> E    G_5 D_5   
     e( 11 - 11) =      9.79030  eV     1   --> B_2  G_4 D_2'  
     e( 12 - 12) =     10.25553  eV     1   --> B_1  G_3 D_2   
     e( 13 - 13) =     10.30626  eV     1   --> A_1  G_1 D_1   
     e( 14 - 15) =     10.40639  eV     2   --> E    G_5 D_5   
     e( 16 - 16) =     10.85608  eV     1   --> B_1  G_3 D_2   
     e( 17 - 17) =     11.10299  eV     1   --> A_2  G_2 D_1'  
     e( 18 - 19) =     11.24925  eV     2   --> E    G_5 D_5   
     e( 20 - 20) =     11.49740  eV     1   --> A_1  G_1 D_1   

 **************************************************************************

 **************************************************************************

                    xk=(   0.40000,   0.00000,   0.00000  )

     Band symmetry, C_4v (4mm)  point group:

     e(  1 -  1) =     -3.95218  eV     1   --> A_1  G_1 D_1   
     e(  2 -  2) =      4.79858  eV     1   --> A_1  G_1 D_1   
     e(  3 -  4) =      7.08315  eV     2   --> E    G_5 D_5   
     e(  5 -  5) =      7.50375  eV     1   --> A_1  G_1 D_1   
     e(  6 -  6) =      8.46122  eV     1   --> A_1  G_1 D_1   
     e(  7 -  7) =      8.87552  eV     1   --> B_2  G_4 D_2'  
     e(  8 -  8) =      9.25077  eV     1   --> B_1  G_3 D_2   
     e(  9 - 10) =      9.28301  eV     2   --> E    G_5 D_5   
     e( 11 - 11) =      9.77523  eV     1   --> B_2  G_4 D_2'  
     e( 12 - 12) =     10.25183  eV     1   --> B_1  G_3 D_2   
     e( 13 - 13) =     10.28382  eV     1   --> A_1  G_1 D_1   
     e( 14 - 15) =     10.42244  eV     2   --> E    G_5 D_5   
     e( 16 - 16) =     10.83572  eV     1   --> B_1  G_3 D_2   
     e( 17 - 17) =     11.10301  eV     1   --> A_2  G_2 D_1'  
     e( 18 - 19) =     11.22723  eV     2   --> E    G_5 D_5   
     e( 20 - 20) =     11.48277  eV     1   --> A_1  G_1 D_1   

 **************************************************************************

 **************************************************************************

                    xk=(   0.41667,   0.00000,   0.00000  )

     Band symmetry, C_4v (4mm)  point group:

     e(  1 -  1) =     -3.93605  eV     1   --> A_1  G_1 D_1   
     e(  2 -  2) =      4.74422  eV     1   --> A_1  G_1 D_1   
     e(  3 -  4) =      7.06767  eV     2   --> E    G_5 D_5   
     e(  5 -  5) =      7.58374  eV     1   --> A_1  G_1 D_1   
     e(  6 -  6) =      8.40995  eV     1   --> A_1  G_1 D_1   
     e(  7 -  7) =      8.88823  eV     1   --> B_2  G_4 D_2'  
     e(  8 -  8) =      9.28035  eV     1   --> B_1  G_3 D_2   
     e(  9 - 10) =      9.29513  eV     2   --> E    G_5 D_5   
     e( 11 - 11) =      9.76178  eV     1   --> B_2  G_4 D_2'  
     e( 12 - 12) =     10.24795  eV     1   --> B_1  G_3 D_2   
     e( 13 - 13) =     10.26409  eV     1   --> A_1  G_1 D_1   
     e( 14 - 15) =     10.43701  eV     2   --> E    G_5 D_5   
     e( 16 - 16) =     10.81769  eV     1   --> B_1  G_3 D_2   
     e( 17 - 17) =     11.10302  eV     1   --> A_2  G_2 D_1'  
     e( 18 - 19) =     11.20643  eV     2   --> E    G_5 D_5   
     e( 20 - 20) =     11.46977  eV     1   --> A_1  G_1 D_1   

 **************************************************************************

 **************************************************************************

                    xk=(   0.43333,   0.00000,   0.00000  )

     Band symmetry, C_4v (4mm)  point group:

     e(  1 -  1) =     -3.92249  eV     1   --> A_1  G_1 D_1   
     e(  2 -  2) =      4.69877  eV     1   --> A_1  G_1 D_1   
     e(  3 -  4) =      7.05495  eV     2   --> E    G_5 D_5   
     e(  5 -  5) =      7.66351  eV     1   --> A_1  G_1 D_1   
     e(  6 -  6) =      8.35425  eV     1   --> A_1  G_1 D_1   
     e(  7 -  7) =      8.89913  eV     1   --> B_2  G_4 D_2'  
     e(  8 -  9) =      9.30523  eV     2   --> E    G_5 D_5   
     e( 10 - 10) =      9.30598  eV     1   --> B_1  G_3 D_2   
     e( 11 - 11) =      9.75026  eV     1   --> B_2  G_4 D_2'  
     e( 12 - 12) =     10.24411  eV     1   --> B_1  G_3 D_2   
     e( 13 - 13) =     10.24750  eV     1   --> A_1  G_1 D_1   
     e( 14 - 15) =     10.44974  eV     2   --> E    G_5 D_5   
     e( 16 - 16) =     10.80229  eV     1   --> B_1  G_3 D_2   
     e( 17 - 17) =     11.10303  eV     1   --> A_2  G_2 D_1'  
     e( 18 - 19) =     11.18793  eV     2   --> E    G_5 D_5   
     e( 20 - 20) =     11.45863  eV     1   --> A_1  G_1 D_1   

 **************************************************************************

 **************************************************************************

                    xk=(   0.45000,   0.00000,   0.00000  )

     Band symmetry, C_4v (4mm)  point group:

     e(  1 -  1) =     -3.91173  eV     1   --> A_1  G_1 D_1   
     e(  2 -  2) =      4.66291  eV     1   --> A_1  G_1 D_1   
     e(  3 -  4) =      7.04502  eV     2   --> E    G_5 D_5   
     e(  5 -  5) =      7.74083  eV     1   --> A_1  G_1 D_1   
     e(  6 -  6) =      8.29594  eV     1   --> A_1  G_1 D_1   
     e(  7 -  7) =      8.90795  eV     1   --> B_2  G_4 D_2'  
     e(  8 -  9) =      9.31308  eV     2   --> E    G_5 D_5   
     e( 10 - 10) =      9.32686  eV     1   --> B_1  G_3 D_2   
     e( 11 - 11) =      9.74096  eV     1   --> B_2  G_4 D_2'  
     e( 12 - 12) =     10.23435  eV     1   --> A_1  G_1 D_1   
     e( 13 - 13) =     10.24063  eV     1   --> B_1  G_3 D_2   
     e( 14 - 15) =     10.46020  eV     2   --> E    G_5 D_5   
     e( 16 - 16) =     10.78993  eV     1   --> B_1  G_3 D_2   
     e( 17 - 17) =     11.10305  eV     1   --> A_2  G_2 D_1'  
     e( 18 - 19) =     11.17257  eV     2   --> E    G_5 D_5   
     e( 20 - 20) =     11.44967  eV     1   --> A_1  G_1 D_1   

 **************************************************************************

 **************************************************************************

                    xk=(   0.46667,   0.00000,   0.00000  )

     Band symmetry, C_4v (4mm)  point group:

     e(  1 -  1) =     -3.90392  eV     1   --> A_1  G_1 D_1   
     e(  2 -  2) =      4.63702  eV     1   --> A_1  G_1 D_1   
     e(  3 -  4) =      7.03791  eV     2   --> E    G_5 D_5   
     e(  5 -  5) =      7.81175  eV     1   --> A_1  G_1 D_1   
     e(  6 -  6) =      8.23874  eV     1   --> A_1  G_1 D_1   
     e(  7 -  7) =      8.91445  eV     1   --> B_2  G_4 D_2'  
     e(  8 -  9) =      9.31869  eV     2   --> E    G_5 D_5   
     e( 10 - 10) =      9.34233  eV     1   --> B_1  G_3 D_2   
     e( 11 - 11) =      9.73411  eV     1   --> B_2  G_4 D_2'  
     e( 12 - 12) =     10.22485  eV     1   --> A_1  G_1 D_1   
     e( 13 - 13) =     10.23784  eV     1   --> B_1  G_3 D_2   
     e( 14 - 15) =     10.46802  eV     2   --> E    G_5 D_5   
     e( 16 - 16) =     10.78089  eV     1   --> B_1  G_3 D_2   
     e( 17 - 17) =     11.10306  eV     1   --> A_2  G_2 D_1'  
     e( 18 - 19) =     11.16106  eV     2   --> E    G_5 D_5   
     e( 20 - 20) =     11.44310  eV     1   --> A_1  G_1 D_1   

 **************************************************************************

 **************************************************************************

                    xk=(   0.48333,   0.00000,   0.00000  )

     Band symmetry, C_4v (4mm)  point group:

     e(  1 -  1) =     -3.89919  eV     1   --> A_1  G_1 D_1   
     e(  2 -  2) =      4.62139  eV     1   --> A_1  G_1 D_1   
     e(  3 -  4) =      7.03364  eV     2   --> E    G_5 D_5   
     e(  5 -  5) =      7.86759  eV     1   --> A_1  G_1 D_1   
     e(  6 -  6) =      8.19117  eV     1   --> A_1  G_1 D_1   
     e(  7 -  7) =      8.91843  eV     1   --> B_2  G_4 D_2'  
     e(  8 -  9) =      9.32205  eV     2   --> E    G_5 D_5   
     e( 10 - 10) =      9.35185  eV     1   --> B_1  G_3 D_2   
     e( 11 - 11) =      9.72992  eV     1   --> B_2  G_4 D_2'  
     e( 12 - 12) =     10.21911  eV     1   --> A_1  G_1 D_1   
     e( 13 - 13) =     10.23602  eV     1   --> B_1  G_3 D_2   
     e( 14 - 15) =     10.47285  eV     2   --> E    G_5 D_5   
     e( 16 - 16) =     10.77538  eV     1   --> B_1  G_3 D_2   
     e( 17 - 17) =     11.10306  eV     1   --> A_2  G_2 D_1'  
     e( 18 - 19) =     11.15393  eV     2   --> E    G_5 D_5   
     e( 20 - 20) =     11.43910  eV     1   --> A_1  G_1 D_1   

 **************************************************************************

 **************************************************************************

                    xk=(   0.50000,   0.00000,   0.00000  )

     zone border point and non-symmorphic group 
     symmetry decomposition not available

 **************************************************************************

 **************************************************************************

                    xk=(   0.50000,  -0.01667,   0.00000  )

     point group C_2v (mm2) 
     there are  4 classes
     the character table:

       E     C2    s_v   s_v' 
A_1    1.00  1.00  1.00  1.00
A_2    1.00  1.00 -1.00 -1.00
B_1    1.00 -1.00  1.00 -1.00
B_2    1.00 -1.00 -1.00  1.00

     the symmetry operations in each class and the name of the first element:

     E        1
                                                                 
     C2       2
                                                                 
     s_v      3
                                                                 
     s_v'     4
                                                                 

     Band symmetry, C_2v (mm2)  point group:

     e(  1 -  1) =     -3.89635  eV     1   --> A_1  D_1  S_1  
     e(  2 -  2) =      4.61700  eV     1   --> B_1  D_3  S_3  
     e(  3 -  3) =      7.02418  eV     1   --> A_1  D_1  S_1  
     e(  4 -  4) =      7.03089  eV     1   --> B_2  D_4  S_4  
     e(  5 -  5) =      7.89148  eV     1   --> B_1  D_3  S_3  
     e(  6 -  6) =      8.17343  eV     1   --> A_1  D_1  S_1  
     e(  7 -  7) =      8.92157  eV     1   --> B_2  D_4  S_4  
     e(  8 -  8) =      9.32350  eV     1   --> A_2  D_2  S_2  
     e(  9 -  9) =      9.32369  eV     1   --> B_1  D_3  S_3  
     e( 10 - 10) =      9.35615  eV     1   --> B_1  D_3  S_3  
     e( 11 - 11) =      9.72838  eV     1   --> A_2  D_2  S_2  
     e( 12 - 12) =     10.21602  eV     1   --> A_1  D_1  S_1  
     e( 13 - 13) =     10.23274  eV     1   --> A_1  D_1  S_1  
     e( 14 - 14) =     10.47414  eV     1   --> B_1  D_3  S_3  
     e( 15 - 15) =     10.47501  eV     1   --> A_2  D_2  S_2  
     e( 16 - 16) =     10.77324  eV     1   --> A_1  D_1  S_1  
     e( 17 - 17) =     11.09560  eV     1   --> B_2  D_4  S_4  
     e( 18 - 18) =     11.15299  eV     1   --> A_1  D_1  S_1  
     e( 19 - 19) =     11.15684  eV     1   --> B_2  D_4  S_4  
     e( 20 - 20) =     11.43852  eV     1   --> B_1  D_3  S_3  

 **************************************************************************

 **************************************************************************

                    xk=(   0.50000,  -0.03333,   0.00000  )

     Band symmetry, C_2v (mm2)  point group:

     e(  1 -  1) =     -3.89264  eV     1   --> A_1  D_1  S_1  
     e(  2 -  2) =      4.61870  eV     1   --> B_1  D_3  S_3  
     e(  3 -  3) =      6.99996  eV     1   --> A_1  D_1  S_1  
     e(  4 -  4) =      7.02628  eV     1   --> B_2  D_4  S_4  
     e(  5 -  5) =      7.89316  eV     1   --> B_1  D_3  S_3  
     e(  6 -  6) =      8.18116  eV     1   --> A_1  D_1  S_1  
     e(  7 -  7) =      8.92662  eV     1   --> B_2  D_4  S_4  
     e(  8 -  8) =      9.32444  eV     1   --> A_2  D_2  S_2  
     e(  9 -  9) =      9.32509  eV     1   --> B_1  D_3  S_3  
     e( 10 - 10) =      9.35939  eV     1   --> B_1  D_3  S_3  
     e( 11 - 11) =      9.72773  eV     1   --> A_2  D_2  S_2  
     e( 12 - 12) =     10.21192  eV     1   --> A_1  D_1  S_1  
     e( 13 - 13) =     10.22550  eV     1   --> A_1  D_1  S_1  
     e( 14 - 14) =     10.47254  eV     1   --> B_1  D_3  S_3  
     e( 15 - 15) =     10.47622  eV     1   --> A_2  D_2  S_2  
     e( 16 - 16) =     10.77242  eV     1   --> A_1  D_1  S_1  
     e( 17 - 17) =     11.07841  eV     1   --> B_2  D_4  S_4  
     e( 18 - 18) =     11.15701  eV     1   --> A_1  D_1  S_1  
     e( 19 - 19) =     11.16735  eV     1   --> B_2  D_4  S_4  
     e( 20 - 20) =     11.44059  eV     1   --> B_1  D_3  S_3  

 **************************************************************************

 **************************************************************************

                    xk=(   0.50000,  -0.05000,   0.00000  )

     Band symmetry, C_2v (mm2)  point group:

     e(  1 -  1) =     -3.88649  eV     1   --> A_1  D_1  S_1  
     e(  2 -  2) =      4.62134  eV     1   --> B_1  D_3  S_3  
     e(  3 -  3) =      6.96074  eV     1   --> A_1  D_1  S_1  
     e(  4 -  4) =      7.01871  eV     1   --> B_2  D_4  S_4  
     e(  5 -  5) =      7.89584  eV     1   --> B_1  D_3  S_3  
     e(  6 -  6) =      8.19367  eV     1   --> A_1  D_1  S_1  
     e(  7 -  7) =      8.93522  eV     1   --> B_2  D_4  S_4  
     e(  8 -  8) =      9.32600  eV     1   --> A_2  D_2  S_2  
     e(  9 -  9) =      9.32734  eV     1   --> B_1  D_3  S_3  
     e( 10 - 10) =      9.36476  eV     1   --> B_1  D_3  S_3  
     e( 11 - 11) =      9.72692  eV     1   --> A_2  D_2  S_2  
     e( 12 - 12) =     10.20336  eV     1   --> A_1  D_1  S_1  
     e( 13 - 13) =     10.21571  eV     1   --> A_1  D_1  S_1  
     e( 14 - 14) =     10.47002  eV     1   --> B_1  D_3  S_3  
     e( 15 - 15) =     10.47819  eV     1   --> A_2  D_2  S_2  
     e( 16 - 16) =     10.77103  eV     1   --> A_1  D_1  S_1  
     e( 17 - 17) =     11.05664  eV     1   --> B_2  D_4  S_4  
     e( 18 - 18) =     11.16367  eV     1   --> A_1  D_1  S_1  
     e( 19 - 19) =     11.17832  eV     1   --> B_2  D_4  S_4  
     e( 20 - 20) =     11.44382  eV     1   --> B_1  D_3  S_3  

 **************************************************************************

 **************************************************************************

                    xk=(   0.50000,  -0.06667,   0.00000  )

     Band symmetry, C_2v (mm2)  point group:

     e(  1 -  1) =     -3.87790  eV     1   --> A_1  D_1  S_1  
     e(  2 -  2) =      4.62531  eV     1   --> B_1  D_3  S_3  
     e(  3 -  3) =      6.90750  eV     1   --> A_1  D_1  S_1  
     e(  4 -  4) =      7.00855  eV     1   --> B_2  D_4  S_4  
     e(  5 -  5) =      7.90008  eV     1   --> B_1  D_3  S_3  
     e(  6 -  6) =      8.21060  eV     1   --> A_1  D_1  S_1  
     e(  7 -  7) =      8.94709  eV     1   --> B_2  D_4  S_4  
     e(  8 -  8) =      9.32818  eV     1   --> A_2  D_2  S_2  
     e(  9 -  9) =      9.33032  eV     1   --> B_1  D_3  S_3  
     e( 10 - 10) =      9.37234  eV     1   --> B_1  D_3  S_3  
     e( 11 - 11) =      9.72582  eV     1   --> A_2  D_2  S_2  
     e( 12 - 12) =     10.18817  eV     1   --> A_1  D_1  S_1  
     e( 13 - 13) =     10.20641  eV     1   --> A_1  D_1  S_1  
     e( 14 - 14) =     10.46672  eV     1   --> B_1  D_3  S_3  
     e( 15 - 15) =     10.48108  eV     1   --> A_2  D_2  S_2  
     e( 16 - 16) =     10.76900  eV     1   --> A_1  D_1  S_1  
     e( 17 - 17) =     11.03219  eV     1   --> B_2  D_4  S_4  
     e( 18 - 18) =     11.17288  eV     1   --> A_1  D_1  S_1  
     e( 19 - 19) =     11.18851  eV     1   --> B_2  D_4  S_4  
     e( 20 - 20) =     11.44793  eV     1   --> B_1  D_3  S_3  

 **************************************************************************

 **************************************************************************

                    xk=(   0.50000,  -0.08333,   0.00000  )

     Band symmetry, C_2v (mm2)  point group:

     e(  1 -  1) =     -3.86694  eV     1   --> A_1  D_1  S_1  
     e(  2 -  2) =      4.63042  eV     1   --> B_1  D_3  S_3  
     e(  3 -  3) =      6.84185  eV     1   --> A_1  D_1  S_1  
     e(  4 -  4) =      6.99586  eV     1   --> B_2  D_4  S_4  
     e(  5 -  5) =      7.90578  eV     1   --> B_1  D_3  S_3  
     e(  6 -  6) =      8.23151  eV     1   --> A_1  D_1  S_1  
     e(  7 -  7) =      8.96198  eV     1   --> B_2  D_4  S_4  
     e(  8 -  8) =      9.33099  eV     1   --> A_2  D_2  S_2  
     e(  9 -  9) =      9.33403  eV     1   --> B_1  D_3  S_3  
     e( 10 - 10) =      9.38212  eV     1   --> B_1  D_3  S_3  
     e( 11 - 11) =      9.72439  eV     1   --> A_2  D_2  S_2  
     e( 12 - 12) =     10.16760  eV     1   --> A_1  D_1  S_1  
     e( 13 - 13) =     10.19713  eV     1   --> A_1  D_1  S_1  
     e( 14 - 14) =     10.46275  eV     1   --> B_1  D_3  S_3  
     e( 15 - 15) =     10.48481  eV     1   --> A_2  D_2  S_2  
     e( 16 - 16) =     10.76624  eV     1   --> A_1  D_1  S_1  
     e( 17 - 17) =     11.00590  eV     1   --> B_2  D_4  S_4  
     e( 18 - 18) =     11.18444  eV     1   --> A_1  D_1  S_1  
     e( 19 - 19) =     11.19761  eV     1   --> B_2  D_4  S_4  
     e( 20 - 20) =     11.45233  eV     1   --> B_1  D_3  S_3  

 **************************************************************************

 **************************************************************************

                    xk=(   0.50000,  -0.10000,   0.00000  )

     Band symmetry, C_2v (mm2)  point group:

     e(  1 -  1) =     -3.85387  eV     1   --> A_1  D_1  S_1  
     e(  2 -  2) =      4.63634  eV     1   --> B_1  D_3  S_3  
     e(  3 -  3) =      6.76434  eV     1   --> A_1  D_1  S_1  
     e(  4 -  4) =      6.98076  eV     1   --> B_2  D_4  S_4  
     e(  5 -  5) =      7.91299  eV     1   --> B_1  D_3  S_3  
     e(  6 -  6) =      8.25557  eV     1   --> A_1  D_1  S_1  
     e(  7 -  7) =      8.97963  eV     1   --> B_2  D_4  S_4  
     e(  8 -  8) =      9.33437  eV     1   --> A_2  D_2  S_2  
     e(  9 -  9) =      9.33786  eV     1   --> B_1  D_3  S_3  
     e( 10 - 10) =      9.39352  eV     1   --> B_1  D_3  S_3  
     e( 11 - 11) =      9.72261  eV     1   --> A_2  D_2  S_2  
     e( 12 - 12) =     10.14352  eV     1   --> A_1  D_1  S_1  
     e( 13 - 13) =     10.18682  eV     1   --> A_1  D_1  S_1  
     e( 14 - 14) =     10.45826  eV     1   --> B_1  D_3  S_3  
     e( 15 - 15) =     10.48939  eV     1   --> A_2  D_2  S_2  
     e( 16 - 16) =     10.76262  eV     1   --> A_1  D_1  S_1  
     e( 17 - 17) =     10.97821  eV     1   --> B_2  D_4  S_4  
     e( 18 - 18) =     11.19807  eV     1   --> A_1  D_1  S_1  
     e( 19 - 19) =     11.20565  eV     1   --> B_2  D_4  S_4  
     e( 20 - 20) =     11.45633  eV     1   --> B_1  D_3  S_3  

 **************************************************************************

 **************************************************************************

                    xk=(   0.50000,  -0.11667,   0.00000  )

     Band symmetry, C_2v (mm2)  point group:

     e(  1 -  1) =     -3.83859  eV     1   --> A_1  D_1  S_1  
     e(  2 -  2) =      4.64315  eV     1   --> B_1  D_3  S_3  
     e(  3 -  3) =      6.67720  eV     1   --> A_1  D_1  S_1  
     e(  4 -  4) =      6.96375  eV     1   --> B_2  D_4  S_4  
     e(  5 -  5) =      7.92199  eV     1   --> B_1  D_3  S_3  
     e(  6 -  6) =      8.28281  eV     1   --> A_1  D_1  S_1  
     e(  7 -  7) =      8.99980  eV     1   --> B_2  D_4  S_4  
     e(  8 -  8) =      9.33834  eV     1   --> A_2  D_2  S_2  
     e(  9 -  9) =      9.34182  eV     1   --> B_1  D_3  S_3  
     e( 10 - 10) =      9.40703  eV     1   --> B_1  D_3  S_3  
     e( 11 - 11) =      9.72049  eV     1   --> A_2  D_2  S_2  
     e( 12 - 12) =     10.11713  eV     1   --> A_1  D_1  S_1  
     e( 13 - 13) =     10.17545  eV     1   --> A_1  D_1  S_1  
     e( 14 - 14) =     10.45346  eV     1   --> B_1  D_3  S_3  
     e( 15 - 15) =     10.49483  eV     1   --> A_2  D_2  S_2  
     e( 16 - 16) =     10.75810  eV     1   --> A_1  D_1  S_1  
     e( 17 - 17) =     10.94955  eV     1   --> B_2  D_4  S_4  
     e( 18 - 18) =     11.21287  eV     1   --> B_2  D_4  S_4  
     e( 19 - 19) =     11.21362  eV     1   --> A_1  D_1  S_1  
     e( 20 - 20) =     11.45920  eV     1   --> B_1  D_3  S_3  

 **************************************************************************

 **************************************************************************

                    xk=(   0.50000,  -0.13333,   0.00000  )

     Band symmetry, C_2v (mm2)  point group:

     e(  1 -  1) =     -3.82129  eV     1   --> A_1  D_1  S_1  
     e(  2 -  2) =      4.65072  eV     1   --> B_1  D_3  S_3  
     e(  3 -  3) =      6.58183  eV     1   --> A_1  D_1  S_1  
     e(  4 -  4) =      6.94503  eV     1   --> B_2  D_4  S_4  
     e(  5 -  5) =      7.93293  eV     1   --> B_1  D_3  S_3  
     e(  6 -  6) =      8.31279  eV     1   --> A_1  D_1  S_1  
     e(  7 -  7) =      9.02218  eV     1   --> B_2  D_4  S_4  
     e(  8 -  8) =      9.34289  eV     1   --> A_2  D_2  S_2  
     e(  9 -  9) =      9.34561  eV     1   --> B_1  D_3  S_3  
     e( 10 - 10) =      9.42241  eV     1   --> B_1  D_3  S_3  
     e( 11 - 11) =      9.71801  eV     1   --> A_2  D_2  S_2  
     e( 12 - 12) =     10.08920  eV     1   --> A_1  D_1  S_1  
     e( 13 - 13) =     10.16299  eV     1   --> A_1  D_1  S_1  
     e( 14 - 14) =     10.44854  eV     1   --> B_1  D_3  S_3  
     e( 15 - 15) =     10.50114  eV     1   --> A_2  D_2  S_2  
     e( 16 - 16) =     10.75253  eV     1   --> A_1  D_1  S_1  
     e( 17 - 17) =     10.92018  eV     1   --> B_2  D_4  S_4  
     e( 18 - 18) =     11.21942  eV     1   --> B_2  D_4  S_4  
     e( 19 - 19) =     11.23085  eV     1   --> A_1  D_1  S_1  
     e( 20 - 20) =     11.46031  eV     1   --> B_1  D_3  S_3  

 **************************************************************************

 **************************************************************************

                    xk=(   0.50000,  -0.15000,   0.00000  )

     Band symmetry, C_2v (mm2)  point group:

     e(  1 -  1) =     -3.80212  eV     1   --> A_1  D_1  S_1  
     e(  2 -  2) =      4.65895  eV     1   --> B_1  D_3  S_3  
     e(  3 -  3) =      6.47988  eV     1   --> A_1  D_1  S_1  
     e(  4 -  4) =      6.92489  eV     1   --> B_2  D_4  S_4  
     e(  5 -  5) =      7.94599  eV     1   --> B_1  D_3  S_3  
     e(  6 -  6) =      8.34528  eV     1   --> A_1  D_1  S_1  
     e(  7 -  7) =      9.04646  eV     1   --> B_2  D_4  S_4  
     e(  8 -  8) =      9.34799  eV     1   --> A_2  D_2  S_2  
     e(  9 -  9) =      9.34895  eV     1   --> B_1  D_3  S_3  
     e( 10 - 10) =      9.43958  eV     1   --> B_1  D_3  S_3  
     e( 11 - 11) =      9.71516  eV     1   --> A_2  D_2  S_2  
     e( 12 - 12) =     10.06037  eV     1   --> A_1  D_1  S_1  
     e( 13 - 13) =     10.14958  eV     1   --> A_1  D_1  S_1  
     e( 14 - 14) =     10.44371  eV     1   --> B_1  D_3  S_3  
     e( 15 - 15) =     10.50833  eV     1   --> A_2  D_2  S_2  
     e( 16 - 16) =     10.74578  eV     1   --> A_1  D_1  S_1  
     e( 17 - 17) =     10.89036  eV     1   --> B_2  D_4  S_4  
     e( 18 - 18) =     11.22543  eV     1   --> B_2  D_4  S_4  
     e( 19 - 19) =     11.24955  eV     1   --> A_1  D_1  S_1  
     e( 20 - 20) =     11.45941  eV     1   --> B_1  D_3  S_3  

 **************************************************************************

 **************************************************************************

                    xk=(   0.50000,  -0.16667,   0.00000  )

     Band symmetry, C_2v (mm2)  point group:

     e(  1 -  1) =     -3.78125  eV     1   --> A_1  D_1  S_1  
     e(  2 -  2) =      4.66768  eV     1   --> B_1  D_3  S_3  
     e(  3 -  3) =      6.37210  eV     1   --> A_1  D_1  S_1  
     e(  4 -  4) =      6.90365  eV     1   --> B_2  D_4  S_4  
     e(  5 -  5) =      7.96130  eV     1   --> B_1  D_3  S_3  
     e(  6 -  6) =      8.38006  eV     1   --> A_1  D_1  S_1  
     e(  7 -  7) =      9.07232  eV     1   --> B_2  D_4  S_4  
     e(  8 -  8) =      9.35154  eV     1   --> B_1  D_3  S_3  
     e(  9 -  9) =      9.35362  eV     1   --> A_2  D_2  S_2  
     e( 10 - 10) =      9.45844  eV     1   --> B_1  D_3  S_3  
     e( 11 - 11) =      9.71191  eV     1   --> A_2  D_2  S_2  
     e( 12 - 12) =     10.03105  eV     1   --> A_1  D_1  S_1  
     e( 13 - 13) =     10.13536  eV     1   --> A_1  D_1  S_1  
     e( 14 - 14) =     10.43899  eV     1   --> B_1  D_3  S_3  
     e( 15 - 15) =     10.51641  eV     1   --> A_2  D_2  S_2  
     e( 16 - 16) =     10.73772  eV     1   --> A_1  D_1  S_1  
     e( 17 - 17) =     10.86026  eV     1   --> B_2  D_4  S_4  
     e( 18 - 18) =     11.23103  eV     1   --> B_2  D_4  S_4  
     e( 19 - 19) =     11.26945  eV     1   --> A_1  D_1  S_1  
     e( 20 - 20) =     11.45657  eV     1   --> B_1  D_3  S_3  

 **************************************************************************

 **************************************************************************

                    xk=(   0.50000,  -0.18333,   0.00000  )

     Band symmetry, C_2v (mm2)  point group:

     e(  1 -  1) =     -3.75884  eV     1   --> A_1  D_1  S_1  
     e(  2 -  2) =      4.67683  eV     1   --> B_1  D_3  S_3  
     e(  3 -  3) =      6.26077  eV     1   --> A_1  D_1  S_1  
     e(  4 -  4) =      6.88160  eV     1   --> B_2  D_4  S_4  
     e(  5 -  5) =      7.97911  eV     1   --> B_1  D_3  S_3  
     e(  6 -  6) =      8.41698  eV     1   --> A_1  D_1  S_1  
     e(  7 -  7) =      9.09949  eV     1   --> B_2  D_4  S_4  
     e(  8 -  8) =      9.35313  eV     1   --> B_1  D_3  S_3  
     e(  9 -  9) =      9.35975  eV     1   --> A_2  D_2  S_2  
     e( 10 - 10) =      9.47891  eV     1   --> B_1  D_3  S_3  
     e( 11 - 11) =      9.70829  eV     1   --> A_2  D_2  S_2  
     e( 12 - 12) =     10.00182  eV     1   --> A_1  D_1  S_1  
     e( 13 - 13) =     10.12051  eV     1   --> A_1  D_1  S_1  
     e( 14 - 14) =     10.43460  eV     1   --> B_1  D_3  S_3  
     e( 15 - 15) =     10.52537  eV     1   --> A_2  D_2  S_2  
     e( 16 - 16) =     10.72831  eV     1   --> A_1  D_1  S_1  
     e( 17 - 17) =     10.83008  eV     1   --> B_2  D_4  S_4  
     e( 18 - 18) =     11.23630  eV     1   --> B_2  D_4  S_4  
     e( 19 - 19) =     11.29036  eV     1   --> A_1  D_1  S_1  
     e( 20 - 20) =     11.45225  eV     1   --> B_1  D_3  S_3  

 **************************************************************************

 **************************************************************************

                    xk=(   0.50000,  -0.20000,   0.00000  )

     Band symmetry, C_2v (mm2)  point group:

     e(  1 -  1) =     -3.73513  eV     1   --> A_1  D_1  S_1  
     e(  2 -  2) =      4.68620  eV     1   --> B_1  D_3  S_3  
     e(  3 -  3) =      6.14670  eV     1   --> A_1  D_1  S_1  
     e(  4 -  4) =      6.85882  eV     1   --> B_2  D_4  S_4  
     e(  5 -  5) =      7.99948  eV     1   --> B_1  D_3  S_3  
     e(  6 -  6) =      8.45589  eV     1   --> A_1  D_1  S_1  
     e(  7 -  7) =      9.12748  eV     1   --> B_2  D_4  S_4  
     e(  8 -  8) =      9.35346  eV     1   --> B_1  D_3  S_3  
     e(  9 -  9) =      9.36651  eV     1   --> A_2  D_2  S_2  
     e( 10 - 10) =      9.50091  eV     1   --> B_1  D_3  S_3  
     e( 11 - 11) =      9.70410  eV     1   --> A_2  D_2  S_2  
     e( 12 - 12) =      9.97290  eV     1   --> A_1  D_1  S_1  
     e( 13 - 13) =     10.10515  eV     1   --> A_1  D_1  S_1  
     e( 14 - 14) =     10.43057  eV     1   --> B_1  D_3  S_3  
     e( 15 - 15) =     10.53520  eV     1   --> A_2  D_2  S_2  
     e( 16 - 16) =     10.71746  eV     1   --> A_1  D_1  S_1  
     e( 17 - 17) =     10.79997  eV     1   --> B_2  D_4  S_4  
     e( 18 - 18) =     11.24135  eV     1   --> B_2  D_4  S_4  
     e( 19 - 19) =     11.31199  eV     1   --> A_1  D_1  S_1  
     e( 20 - 20) =     11.44675  eV     1   --> B_1  D_3  S_3  

 **************************************************************************

 **************************************************************************

                    xk=(   0.50000,  -0.21667,   0.00000  )

     Band symmetry, C_2v (mm2)  point group:

     e(  1 -  1) =     -3.71034  eV     1   --> A_1  D_1  S_1  
     e(  2 -  2) =      4.69565  eV     1   --> B_1  D_3  S_3  
     e(  3 -  3) =      6.03153  eV     1   --> A_1  D_1  S_1  
     e(  4 -  4) =      6.83599  eV     1   --> B_2  D_4  S_4  
     e(  5 -  5) =      8.02256  eV     1   --> B_1  D_3  S_3  
     e(  6 -  6) =      8.49654  eV     1   --> A_1  D_1  S_1  
     e(  7 -  7) =      9.15635  eV     1   --> B_2  D_4  S_4  
     e(  8 -  8) =      9.35221  eV     1   --> B_1  D_3  S_3  
     e(  9 -  9) =      9.37350  eV     1   --> A_2  D_2  S_2  
     e( 10 - 10) =      9.52415  eV     1   --> B_1  D_3  S_3  
     e( 11 - 11) =      9.69968  eV     1   --> A_2  D_2  S_2  
     e( 12 - 12) =      9.94449  eV     1   --> A_1  D_1  S_1  
     e( 13 - 13) =     10.08949  eV     1   --> A_1  D_1  S_1  
     e( 14 - 14) =     10.42696  eV     1   --> B_1  D_3  S_3  
     e( 15 - 15) =     10.54593  eV     1   --> A_2  D_2  S_2  
     e( 16 - 16) =     10.70513  eV     1   --> A_1  D_1  S_1  
     e( 17 - 17) =     10.77004  eV     1   --> B_2  D_4  S_4  
     e( 18 - 18) =     11.24611  eV     1   --> B_2  D_4  S_4  
     e( 19 - 19) =     11.33424  eV     1   --> A_1  D_1  S_1  
     e( 20 - 20) =     11.44044  eV     1   --> B_1  D_3  S_3  

 **************************************************************************

 **************************************************************************

                    xk=(   0.50000,  -0.23333,   0.00000  )

     Band symmetry, C_2v (mm2)  point group:

     e(  1 -  1) =     -3.68465  eV     1   --> A_1  D_1  S_1  
     e(  2 -  2) =      4.70522  eV     1   --> B_1  D_3  S_3  
     e(  3 -  3) =      5.91629  eV     1   --> A_1  D_1  S_1  
     e(  4 -  4) =      6.81318  eV     1   --> B_2  D_4  S_4  
     e(  5 -  5) =      8.04837  eV     1   --> B_1  D_3  S_3  
     e(  6 -  6) =      8.53881  eV     1   --> A_1  D_1  S_1  
     e(  7 -  7) =      9.18550  eV     1   --> B_2  D_4  S_4  
     e(  8 -  8) =      9.34932  eV     1   --> B_1  D_3  S_3  
     e(  9 -  9) =      9.38101  eV     1   --> A_2  D_2  S_2  
     e( 10 - 10) =      9.54867  eV     1   --> B_1  D_3  S_3  
     e( 11 - 11) =      9.69477  eV     1   --> A_2  D_2  S_2  
     e( 12 - 12) =      9.91675  eV     1   --> A_1  D_1  S_1  
     e( 13 - 13) =     10.07362  eV     1   --> A_1  D_1  S_1  
     e( 14 - 14) =     10.42373  eV     1   --> B_1  D_3  S_3  
     e( 15 - 15) =     10.55747  eV     1   --> A_2  D_2  S_2  
     e( 16 - 16) =     10.69137  eV     1   --> A_1  D_1  S_1  
     e( 17 - 17) =     10.74047  eV     1   --> B_2  D_4  S_4  
     e( 18 - 18) =     11.25067  eV     1   --> B_2  D_4  S_4  
     e( 19 - 19) =     11.35684  eV     1   --> A_1  D_1  S_1  
     e( 20 - 20) =     11.43361  eV     1   --> B_1  D_3  S_3  

 **************************************************************************

 **************************************************************************

                    xk=(   0.50000,  -0.25000,   0.00000  )

     Band symmetry, C_2v (mm2)  point group:

     e(  1 -  1) =     -3.65836  eV     1   --> A_1  D_1  S_1  
     e(  2 -  2) =      4.71470  eV     1   --> B_1  D_3  S_3  
     e(  3 -  3) =      5.80210  eV     1   --> A_1  D_1  S_1  
     e(  4 -  4) =      6.79065  eV     1   --> B_2  D_4  S_4  
     e(  5 -  5) =      8.07701  eV     1   --> B_1  D_3  S_3  
     e(  6 -  6) =      8.58255  eV     1   --> A_1  D_1  S_1  
     e(  7 -  7) =      9.21497  eV     1   --> B_2  D_4  S_4  
     e(  8 -  8) =      9.34458  eV     1   --> B_1  D_3  S_3  
     e(  9 -  9) =      9.38891  eV     1   --> A_2  D_2  S_2  
     e( 10 - 10) =      9.57428  eV     1   --> B_1  D_3  S_3  
     e( 11 - 11) =      9.68955  eV     1   --> A_2  D_2  S_2  
     e( 12 - 12) =      9.88987  eV     1   --> A_1  D_1  S_1  
     e( 13 - 13) =     10.05773  eV     1   --> A_1  D_1  S_1  
     e( 14 - 14) =     10.42080  eV     1   --> B_1  D_3  S_3  
     e( 15 - 15) =     10.56989  eV     1   --> A_2  D_2  S_2  
     e( 16 - 16) =     10.67619  eV     1   --> A_1  D_1  S_1  
     e( 17 - 17) =     10.71135  eV     1   --> B_2  D_4  S_4  
     e( 18 - 18) =     11.25505  eV     1   --> B_2  D_4  S_4  
     e( 19 - 19) =     11.37961  eV     1   --> A_1  D_1  S_1  
     e( 20 - 20) =     11.42651  eV     1   --> B_1  D_3  S_3  

 **************************************************************************

 **************************************************************************

                    xk=(   0.50000,  -0.26667,   0.00000  )

     Band symmetry, C_2v (mm2)  point group:

     e(  1 -  1) =     -3.63173  eV     1   --> A_1  D_1  S_1  
     e(  2 -  2) =      4.72398  eV     1   --> B_1  D_3  S_3  
     e(  3 -  3) =      5.69005  eV     1   --> A_1  D_1  S_1  
     e(  4 -  4) =      6.76861  eV     1   --> B_2  D_4  S_4  
     e(  5 -  5) =      8.10837  eV     1   --> B_1  D_3  S_3  
     e(  6 -  6) =      8.62748  eV     1   --> A_1  D_1  S_1  
     e(  7 -  7) =      9.24433  eV     1   --> B_2  D_4  S_4  
     e(  8 -  8) =      9.33785  eV     1   --> B_1  D_3  S_3  
     e(  9 -  9) =      9.39717  eV     1   --> A_2  D_2  S_2  
     e( 10 - 10) =      9.60080  eV     1   --> B_1  D_3  S_3  
     e( 11 - 11) =      9.68393  eV     1   --> A_2  D_2  S_2  
     e( 12 - 12) =      9.86388  eV     1   --> A_1  D_1  S_1  
     e( 13 - 13) =     10.04191  eV     1   --> A_1  D_1  S_1  
     e( 14 - 14) =     10.41807  eV     1   --> B_1  D_3  S_3  
     e( 15 - 15) =     10.58309  eV     1   --> A_2  D_2  S_2  
     e( 16 - 16) =     10.65969  eV     1   --> A_1  D_1  S_1  
     e( 17 - 17) =     10.68282  eV     1   --> B_2  D_4  S_4  
     e( 18 - 18) =     11.25922  eV     1   --> B_2  D_4  S_4  
     e( 19 - 19) =     11.40236  eV     1   --> A_1  D_1  S_1  
     e( 20 - 20) =     11.41934  eV     1   --> B_1  D_3  S_3  

 **************************************************************************

 **************************************************************************

                    xk=(   0.50000,  -0.28333,   0.00000  )

     Band symmetry, C_2v (mm2)  point group:

     e(  1 -  1) =     -3.60508  eV     1   --> A_1  D_1  S_1  
     e(  2 -  2) =      4.73284  eV     1   --> B_1  D_3  S_3  
     e(  3 -  3) =      5.58107  eV     1   --> A_1  D_1  S_1  
     e(  4 -  4) =      6.74703  eV     1   --> B_2  D_4  S_4  
     e(  5 -  5) =      8.14233  eV     1   --> B_1  D_3  S_3  
     e(  6 -  6) =      8.67333  eV     1   --> A_1  D_1  S_1  
     e(  7 -  7) =      9.27320  eV     1   --> B_2  D_4  S_4  
     e(  8 -  8) =      9.32906  eV     1   --> B_1  D_3  S_3  
     e(  9 -  9) =      9.40574  eV     1   --> A_2  D_2  S_2  
     e( 10 - 10) =      9.62806  eV     1   --> B_1  D_3  S_3  
     e( 11 - 11) =      9.67785  eV     1   --> A_2  D_2  S_2  
     e( 12 - 12) =      9.83882  eV     1   --> A_1  D_1  S_1  
     e( 13 - 13) =     10.02623  eV     1   --> A_1  D_1  S_1  
     e( 14 - 14) =     10.41534  eV     1   --> B_1  D_3  S_3  
     e( 15 - 15) =     10.59692  eV     1   --> A_2  D_2  S_2  
     e( 16 - 16) =     10.64201  eV     1   --> A_1  D_1  S_1  
     e( 17 - 17) =     10.65502  eV     1   --> B_2  D_4  S_4  
     e( 18 - 18) =     11.26321  eV     1   --> B_2  D_4  S_4  
     e( 19 - 19) =     11.41232  eV     1   --> B_1  D_3  S_3  
     e( 20 - 20) =     11.42489  eV     1   --> A_1  D_1  S_1  

 **************************************************************************

 **************************************************************************

                    xk=(   0.50000,  -0.30000,   0.00000  )

     Band symmetry, C_2v (mm2)  point group:

     e(  1 -  1) =     -3.57864  eV     1   --> A_1  D_1  S_1  
     e(  2 -  2) =      4.74150  eV     1   --> B_1  D_3  S_3  
     e(  3 -  3) =      5.47635  eV     1   --> A_1  D_1  S_1  
     e(  4 -  4) =      6.72669  eV     1   --> B_2  D_4  S_4  
     e(  5 -  5) =      8.17877  eV     1   --> B_1  D_3  S_3  
     e(  6 -  6) =      8.71984  eV     1   --> A_1  D_1  S_1  
     e(  7 -  7) =      9.30164  eV     1   --> B_2  D_4  S_4  
     e(  8 -  8) =      9.31816  eV     1   --> B_1  D_3  S_3  
     e(  9 -  9) =      9.41458  eV     1   --> A_2  D_2  S_2  
     e( 10 - 10) =      9.65580  eV     1   --> B_1  D_3  S_3  
     e( 11 - 11) =      9.67156  eV     1   --> A_2  D_2  S_2  
     e( 12 - 12) =      9.81471  eV     1   --> A_1  D_1  S_1  
     e( 13 - 13) =     10.01092  eV     1   --> A_1  D_1  S_1  
     e( 14 - 14) =     10.41252  eV     1   --> B_1  D_3  S_3  
     e( 15 - 15) =     10.61150  eV     1   --> A_2  D_2  S_2  
     e( 16 - 16) =     10.62334  eV     1   --> A_1  D_1  S_1  
     e( 17 - 17) =     10.62808  eV     1   --> B_2  D_4  S_4  
     e( 18 - 18) =     11.26700  eV     1   --> B_2  D_4  S_4  
     e( 19 - 19) =     11.40561  eV     1   --> B_1  D_3  S_3  
     e( 20 - 20) =     11.44712  eV     1   --> A_1  D_1  S_1  

 **************************************************************************

 **************************************************************************

                    xk=(   0.50000,  -0.31667,   0.00000  )

     Band symmetry, C_2v (mm2)  point group:

     e(  1 -  1) =     -3.55278  eV     1   --> A_1  D_1  S_1  
     e(  2 -  2) =      4.74959  eV     1   --> B_1  D_3  S_3  
     e(  3 -  3) =      5.37665  eV     1   --> A_1  D_1  S_1  
     e(  4 -  4) =      6.70728  eV     1   --> B_2  D_4  S_4  
     e(  5 -  5) =      8.21736  eV     1   --> B_1  D_3  S_3  
     e(  6 -  6) =      8.76668  eV     1   --> A_1  D_1  S_1  
     e(  7 -  7) =      9.30517  eV     1   --> B_1  D_3  S_3  
     e(  8 -  8) =      9.32926  eV     1   --> B_2  D_4  S_4  
     e(  9 -  9) =      9.42364  eV     1   --> A_2  D_2  S_2  
     e( 10 - 10) =      9.66491  eV     1   --> A_2  D_2  S_2  
     e( 11 - 11) =      9.68383  eV     1   --> B_1  D_3  S_3  
     e( 12 - 12) =      9.79157  eV     1   --> A_1  D_1  S_1  
     e( 13 - 13) =      9.99607  eV     1   --> A_1  D_1  S_1  
     e( 14 - 14) =     10.40939  eV     1   --> B_1  D_3  S_3  
     e( 15 - 15) =     10.60214  eV     1   --> B_2  D_4  S_4  
     e( 16 - 16) =     10.60394  eV     1   --> A_1  D_1  S_1  
     e( 17 - 17) =     10.62662  eV     1   --> A_2  D_2  S_2  
     e( 18 - 18) =     11.27054  eV     1   --> B_2  D_4  S_4  
     e( 19 - 19) =     11.39942  eV     1   --> B_1  D_3  S_3  
     e( 20 - 20) =     11.46880  eV     1   --> A_1  D_1  S_1  

 **************************************************************************

 **************************************************************************

                    xk=(   0.50000,  -0.33333,   0.00000  )

     Band symmetry, C_2v (mm2)  point group:

     e(  1 -  1) =     -3.52780  eV     1   --> A_1  D_1  S_1  
     e(  2 -  2) =      4.75711  eV     1   --> B_1  D_3  S_3  
     e(  3 -  3) =      5.28238  eV     1   --> A_1  D_1  S_1  
     e(  4 -  4) =      6.68902  eV     1   --> B_2  D_4  S_4  
     e(  5 -  5) =      8.25776  eV     1   --> B_1  D_3  S_3  
     e(  6 -  6) =      8.81338  eV     1   --> A_1  D_1  S_1  
     e(  7 -  7) =      9.29011  eV     1   --> B_1  D_3  S_3  
     e(  8 -  8) =      9.35574  eV     1   --> B_2  D_4  S_4  
     e(  9 -  9) =      9.43284  eV     1   --> A_2  D_2  S_2  
     e( 10 - 10) =      9.65792  eV     1   --> A_2  D_2  S_2  
     e( 11 - 11) =      9.71185  eV     1   --> B_1  D_3  S_3  
     e( 12 - 12) =      9.76932  eV     1   --> A_1  D_1  S_1  
     e( 13 - 13) =      9.98172  eV     1   --> A_1  D_1  S_1  
     e( 14 - 14) =     10.40578  eV     1   --> B_1  D_3  S_3  
     e( 15 - 15) =     10.57736  eV     1   --> B_2  D_4  S_4  
     e( 16 - 16) =     10.58408  eV     1   --> A_1  D_1  S_1  
     e( 17 - 17) =     10.64214  eV     1   --> A_2  D_2  S_2  
     e( 18 - 18) =     11.27381  eV     1   --> B_2  D_4  S_4  
     e( 19 - 19) =     11.39382  eV     1   --> B_1  D_3  S_3  
     e( 20 - 20) =     11.48975  eV     1   -->   ?

 **************************************************************************

 **************************************************************************

                    xk=(   0.50000,  -0.35000,   0.00000  )

     Band symmetry, C_2v (mm2)  point group:

     e(  1 -  1) =     -3.50393  eV     1   --> A_1  D_1  S_1  
     e(  2 -  2) =      4.76410  eV     1   --> B_1  D_3  S_3  
     e(  3 -  3) =      5.19507  eV     1   --> A_1  D_1  S_1  
     e(  4 -  4) =      6.67255  eV     1   --> B_2  D_4  S_4  
     e(  5 -  5) =      8.29953  eV     1   --> B_1  D_3  S_3  
     e(  6 -  6) =      8.85964  eV     1   --> A_1  D_1  S_1  
     e(  7 -  7) =      9.27326  eV     1   --> B_1  D_3  S_3  
     e(  8 -  8) =      9.38095  eV     1   --> B_2  D_4  S_4  
     e(  9 -  9) =      9.44240  eV     1   --> A_2  D_2  S_2  
     e( 10 - 10) =      9.65069  eV     1   --> A_2  D_2  S_2  
     e( 11 - 11) =      9.73979  eV     1   --> B_1  D_3  S_3  
     e( 12 - 12) =      9.74817  eV     1   --> A_1  D_1  S_1  
     e( 13 - 13) =      9.96802  eV     1   --> A_1  D_1  S_1  
     e( 14 - 14) =     10.40160  eV     1   --> B_1  D_3  S_3  
     e( 15 - 15) =     10.55398  eV     1   --> B_2  D_4  S_4  
     e( 16 - 16) =     10.56415  eV     1   --> A_1  D_1  S_1  
     e( 17 - 17) =     10.65788  eV     1   --> A_2  D_2  S_2  
     e( 18 - 18) =     11.27688  eV     1   --> B_2  D_4  S_4  
     e( 19 - 19) =     11.38896  eV     1   --> B_1  D_3  S_3  
     e( 20 - 20) =     11.45855  eV     1   --> A_2  D_2  S_2  

 **************************************************************************

 **************************************************************************

                    xk=(   0.50000,  -0.36667,   0.00000  )

     Band symmetry, C_2v (mm2)  point group:

     e(  1 -  1) =     -3.48164  eV     1   --> A_1  D_1  S_1  
     e(  2 -  2) =      4.77032  eV     1   --> B_1  D_3  S_3  
     e(  3 -  3) =      5.11468  eV     1   --> A_1  D_1  S_1  
     e(  4 -  4) =      6.65693  eV     1   --> B_2  D_4  S_4  
     e(  5 -  5) =      8.34199  eV     1   --> B_1  D_3  S_3  
     e(  6 -  6) =      8.90471  eV     1   --> A_1  D_1  S_1  
     e(  7 -  7) =      9.25465  eV     1   --> B_1  D_3  S_3  
     e(  8 -  8) =      9.40437  eV     1   --> B_2  D_4  S_4  
     e(  9 -  9) =      9.45172  eV     1   --> A_2  D_2  S_2  
     e( 10 - 10) =      9.64315  eV     1   --> A_2  D_2  S_2  
     e( 11 - 11) =      9.72779  eV     1   --> A_1  D_1  S_1  
     e( 12 - 12) =      9.76691  eV     1   --> B_1  D_3  S_3  
     e( 13 - 13) =      9.95508  eV     1   --> A_1  D_1  S_1  
     e( 14 - 14) =     10.39673  eV     1   --> B_1  D_3  S_3  
     e( 15 - 15) =     10.53214  eV     1   --> B_2  D_4  S_4  
     e( 16 - 16) =     10.54451  eV     1   --> A_1  D_1  S_1  
     e( 17 - 17) =     10.67362  eV     1   --> A_2  D_2  S_2  
     e( 18 - 18) =     11.27964  eV     1   --> B_2  D_4  S_4  
     e( 19 - 19) =     11.38490  eV     1   --> B_1  D_3  S_3  
     e( 20 - 20) =     11.42855  eV     1   --> A_2  D_2  S_2  

 **************************************************************************

 **************************************************************************

                    xk=(   0.50000,  -0.38333,   0.00000  )

     Band symmetry, C_2v (mm2)  point group:

     e(  1 -  1) =     -3.46113  eV     1   --> A_1  D_1  S_1  
     e(  2 -  2) =      4.77621  eV     1   --> B_1  D_3  S_3  
     e(  3 -  3) =      5.04186  eV     1   --> A_1  D_1  S_1  
     e(  4 -  4) =      6.64323  eV     1   --> B_2  D_4  S_4  
     e(  5 -  5) =      8.38446  eV     1   --> B_1  D_3  S_3  
     e(  6 -  6) =      8.94792  eV     1   --> A_1  D_1  S_1  
     e(  7 -  7) =      9.23469  eV     1   --> B_1  D_3  S_3  
     e(  8 -  8) =      9.42607  eV     1   --> B_2  D_4  S_4  
     e(  9 -  9) =      9.46094  eV     1   --> A_2  D_2  S_2  
     e( 10 - 10) =      9.63572  eV     1   --> A_2  D_2  S_2  
     e( 11 - 11) =      9.70837  eV     1   --> A_1  D_1  S_1  
     e( 12 - 12) =      9.79287  eV     1   --> B_1  D_3  S_3  
     e( 13 - 13) =      9.94320  eV     1   --> A_1  D_1  S_1  
     e( 14 - 14) =     10.39131  eV     1   --> B_1  D_3  S_3  
     e( 15 - 15) =     10.51206  eV     1   --> B_2  D_4  S_4  
     e( 16 - 16) =     10.52561  eV     1   --> A_1  D_1  S_1  
     e( 17 - 17) =     10.68909  eV     1   --> A_2  D_2  S_2  
     e( 18 - 18) =     11.28213  eV     1   --> B_2  D_4  S_4  
     e( 19 - 19) =     11.38168  eV     1   --> B_1  D_3  S_3  
     e( 20 - 20) =     11.40022  eV     1   --> A_2  D_2  S_2  

 **************************************************************************

 **************************************************************************

                    xk=(   0.50000,  -0.40000,   0.00000  )

     Band symmetry, C_2v (mm2)  point group:

     e(  1 -  1) =     -3.44271  eV     1   --> A_1  D_1  S_1  
[...]

                    xk=(   0.18333,  -0.18333,   0.00000  )

     Band symmetry, C_2v (mm2)  point group:

     e(  1 -  1) =     -4.13058  eV     1   --> A_1  D_1  S_1  
     e(  2 -  2) =      5.79805  eV     1   --> A_1  D_1  S_1  
     e(  3 -  3) =      6.53867  eV     1   --> B_1  D_3  S_3  
     e(  4 -  4) =      7.22722  eV     1   --> A_1  D_1  S_1  
     e(  5 -  5) =      7.26585  eV     1   --> B_2  D_4  S_4  
     e(  6 -  6) =      8.79156  eV     1   --> A_2  D_2  S_2  
     e(  7 -  7) =      8.79413  eV     1   --> B_1  D_3  S_3  
     e(  8 -  8) =      8.87732  eV     1   --> A_1  D_1  S_1  
     e(  9 -  9) =      9.05755  eV     1   --> A_1  D_1  S_1  
     e( 10 - 10) =      9.09140  eV     1   --> B_2  D_4  S_4  
     e( 11 - 11) =      9.97156  eV     1   --> B_2  D_4  S_4  
     e( 12 - 12) =     10.22353  eV     1   --> A_2  D_2  S_2  
     e( 13 - 13) =     10.25729  eV     1   --> A_1  D_1  S_1  
     e( 14 - 14) =     10.33994  eV     1   --> B_1  D_3  S_3  
     e( 15 - 15) =     10.36845  eV     1   --> A_1  D_1  S_1  
     e( 16 - 16) =     10.97630  eV     1   --> A_2  D_2  S_2  
     e( 17 - 17) =     11.02250  eV     1   --> B_1  D_3  S_3  
     e( 18 - 18) =     11.36634  eV     1   --> B_1  D_3  S_3  
     e( 19 - 19) =     11.43250  eV     1   --> B_2  D_4  S_4  
     e( 20 - 20) =     11.46963  eV     1   --> A_1  D_1  S_1  

 **************************************************************************

 **************************************************************************

                    xk=(   0.16667,  -0.16667,   0.00000  )

     Band symmetry, C_2v (mm2)  point group:

     e(  1 -  1) =     -4.17563  eV     1   --> A_1  D_1  S_1  
     e(  2 -  2) =      5.82502  eV     1   --> A_1  D_1  S_1  
     e(  3 -  3) =      6.69861  eV     1   --> B_1  D_3  S_3  
     e(  4 -  4) =      7.24934  eV     1   --> A_1  D_1  S_1  
     e(  5 -  5) =      7.33174  eV     1   --> B_2  D_4  S_4  
     e(  6 -  6) =      8.75667  eV     1   --> A_2  D_2  S_2  
     e(  7 -  7) =      8.76798  eV     1   --> B_1  D_3  S_3  
     e(  8 -  8) =      8.83238  eV     1   --> A_1  D_1  S_1  
     e(  9 -  9) =      9.01175  eV     1   --> A_1  D_1  S_1  
     e( 10 - 10) =      9.04135  eV     1   --> B_2  D_4  S_4  
     e( 11 - 11) =      9.99209  eV     1   --> B_2  D_4  S_4  
     e( 12 - 12) =     10.20135  eV     1   --> A_2  D_2  S_2  
     e( 13 - 13) =     10.23384  eV     1   --> A_1  D_1  S_1  
     e( 14 - 14) =     10.37124  eV     1   --> B_1  D_3  S_3  
     e( 15 - 15) =     10.37313  eV     1   --> A_1  D_1  S_1  
     e( 16 - 16) =     10.99778  eV     1   --> A_2  D_2  S_2  
     e( 17 - 17) =     11.05276  eV     1   --> B_1  D_3  S_3  
     e( 18 - 18) =     11.34664  eV     1   --> B_1  D_3  S_3  
     e( 19 - 19) =     11.38132  eV     1   --> B_2  D_4  S_4  
     e( 20 - 20) =     11.50729  eV     1   --> A_1  D_1  S_1  

 **************************************************************************

 **************************************************************************

                    xk=(   0.15000,  -0.15000,   0.00000  )

     Band symmetry, C_2v (mm2)  point group:

     e(  1 -  1) =     -4.21757  eV     1   --> A_1  D_1  S_1  
     e(  2 -  2) =      5.83960  eV     1   --> A_1  D_1  S_1  
     e(  3 -  3) =      6.85949  eV     1   --> B_1  D_3  S_3  
     e(  4 -  4) =      7.29147  eV     1   --> A_1  D_1  S_1  
     e(  5 -  5) =      7.39920  eV     1   --> B_2  D_4  S_4  
     e(  6 -  6) =      8.72460  eV     1   --> A_2  D_2  S_2  
     e(  7 -  7) =      8.74310  eV     1   --> B_1  D_3  S_3  
     e(  8 -  8) =      8.79001  eV     1   --> A_1  D_1  S_1  
     e(  9 -  9) =      8.96437  eV     1   --> A_1  D_1  S_1  
     e( 10 - 10) =      8.98849  eV     1   --> B_2  D_4  S_4  
     e( 11 - 11) =     10.01102  eV     1   --> B_2  D_4  S_4  
     e( 12 - 12) =     10.18109  eV     1   --> A_2  D_2  S_2  
     e( 13 - 13) =     10.21076  eV     1   --> A_1  D_1  S_1  
     e( 14 - 14) =     10.37048  eV     1   --> A_1  D_1  S_1  
     e( 15 - 15) =     10.39499  eV     1   --> B_1  D_3  S_3  
     e( 16 - 16) =     11.01738  eV     1   --> A_2  D_2  S_2  
     e( 17 - 17) =     11.08081  eV     1   --> B_1  D_3  S_3  
     e( 18 - 18) =     11.32009  eV     1   --> B_1  D_3  S_3  
     e( 19 - 19) =     11.33159  eV     1   --> B_2  D_4  S_4  
     e( 20 - 20) =     11.54426  eV     1   --> A_1  D_1  S_1  

 **************************************************************************

 **************************************************************************

                    xk=(   0.13333,  -0.13333,   0.00000  )

     Band symmetry, C_2v (mm2)  point group:

     e(  1 -  1) =     -4.25610  eV     1   --> A_1  D_1  S_1  
     e(  2 -  2) =      5.84383  eV     1   --> A_1  D_1  S_1  
     e(  3 -  3) =      7.01932  eV     1   --> B_1  D_3  S_3  
     e(  4 -  4) =      7.35049  eV     1   --> A_1  D_1  S_1  
     e(  5 -  5) =      7.46741  eV     1   --> B_2  D_4  S_4  
     e(  6 -  6) =      8.69544  eV     1   --> A_2  D_2  S_2  
     e(  7 -  7) =      8.71929  eV     1   --> B_1  D_3  S_3  
     e(  8 -  8) =      8.75091  eV     1   --> A_1  D_1  S_1  
     e(  9 -  9) =      8.91556  eV     1   --> A_1  D_1  S_1  
     e( 10 - 10) =      8.93326  eV     1   --> B_2  D_4  S_4  
     e( 11 - 11) =     10.02800  eV     1   --> B_2  D_4  S_4  
     e( 12 - 12) =     10.16262  eV     1   --> A_2  D_2  S_2  
     e( 13 - 13) =     10.18862  eV     1   --> A_1  D_1  S_1  
     e( 14 - 14) =     10.36164  eV     1   --> A_1  D_1  S_1  
     e( 15 - 15) =     10.40905  eV     1   --> B_1  D_3  S_3  
     e( 16 - 16) =     11.03503  eV     1   --> A_2  D_2  S_2  
     e( 17 - 17) =     11.10610  eV     1   --> B_1  D_3  S_3  
     e( 18 - 18) =     11.28519  eV     1   --> B_2  D_4  S_4  
     e( 19 - 19) =     11.28785  eV     1   --> B_1  D_3  S_3  
     e( 20 - 20) =     11.57731  eV     1   --> A_1  D_1  S_1  

 **************************************************************************

 **************************************************************************

                    xk=(   0.11667,  -0.11667,   0.00000  )

     Band symmetry, C_2v (mm2)  point group:

     e(  1 -  1) =     -4.29093  eV     1   --> A_1  D_1  S_1  
     e(  2 -  2) =      5.84010  eV     1   --> A_1  D_1  S_1  
     e(  3 -  3) =      7.17584  eV     1   --> B_1  D_3  S_3  
     e(  4 -  4) =      7.42191  eV     1   --> A_1  D_1  S_1  
     e(  5 -  5) =      7.53576  eV     1   --> B_2  D_4  S_4  
     e(  6 -  6) =      8.66937  eV     1   --> A_2  D_2  S_2  
     e(  7 -  7) =      8.69673  eV     1   --> B_1  D_3  S_3  
     e(  8 -  8) =      8.71513  eV     1   --> A_1  D_1  S_1  
     e(  9 -  9) =      8.86519  eV     1   --> A_1  D_1  S_1  
     e( 10 - 10) =      8.87632  eV     1   --> B_2  D_4  S_4  
     e( 11 - 11) =     10.04297  eV     1   --> B_2  D_4  S_4  
     e( 12 - 12) =     10.14628  eV     1   --> A_2  D_2  S_2  
     e( 13 - 13) =     10.16779  eV     1   --> A_1  D_1  S_1  
     e( 14 - 14) =     10.34807  eV     1   --> A_1  D_1  S_1  
     e( 15 - 15) =     10.41171  eV     1   --> B_1  D_3  S_3  
     e( 16 - 16) =     11.05067  eV     1   --> A_2  D_2  S_2  
     e( 17 - 17) =     11.12754  eV     1   --> B_1  D_3  S_3  
     e( 18 - 18) =     11.24317  eV     1   --> B_2  D_4  S_4  
     e( 19 - 19) =     11.25363  eV     1   --> B_1  D_3  S_3  
     e( 20 - 20) =     11.60402  eV     1   --> A_1  D_1  S_1  

 **************************************************************************

 **************************************************************************

                    xk=(   0.10000,  -0.10000,   0.00000  )

     Band symmetry, C_2v (mm2)  point group:

     e(  1 -  1) =     -4.32172  eV     1   --> A_1  D_1  S_1  
     e(  2 -  2) =      5.83137  eV     1   --> A_1  D_1  S_1  
     e(  3 -  3) =      7.32659  eV     1   --> B_1  D_3  S_3  
     e(  4 -  4) =      7.50187  eV     1   --> A_1  D_1  S_1  
     e(  5 -  5) =      7.60307  eV     1   --> B_2  D_4  S_4  
     e(  6 -  6) =      8.64645  eV     1   --> A_2  D_2  S_2  
     e(  7 -  7) =      8.67539  eV     1   --> B_1  D_3  S_3  
     e(  8 -  8) =      8.68328  eV     1   --> A_1  D_1  S_1  
     e(  9 -  9) =      8.81383  eV     1   --> A_1  D_1  S_1  
     e( 10 - 10) =      8.81847  eV     1   --> B_2  D_4  S_4  
     e( 11 - 11) =     10.05595  eV     1   --> B_2  D_4  S_4  
     e( 12 - 12) =     10.13184  eV     1   --> A_2  D_2  S_2  
     e( 13 - 13) =     10.14882  eV     1   --> A_1  D_1  S_1  
     e( 14 - 14) =     10.33133  eV     1   --> A_1  D_1  S_1  
     e( 15 - 15) =     10.40197  eV     1   --> B_1  D_3  S_3  
     e( 16 - 16) =     11.06429  eV     1   --> A_2  D_2  S_2  
     e( 17 - 17) =     11.14246  eV     1   --> B_1  D_3  S_3  
     e( 18 - 18) =     11.20617  eV     1   --> B_2  D_4  S_4  
     e( 19 - 19) =     11.22395  eV     1   --> B_1  D_3  S_3  
     e( 20 - 20) =     11.62361  eV     1   --> A_1  D_1  S_1  

 **************************************************************************

 **************************************************************************

                    xk=(   0.08333,  -0.08333,   0.00000  )

     Band symmetry, C_2v (mm2)  point group:

     e(  1 -  1) =     -4.34819  eV     1   --> A_1  D_1  S_1  
     e(  2 -  2) =      5.82013  eV     1   --> A_1  D_1  S_1  
     e(  3 -  3) =      7.46814  eV     1   --> B_1  D_3  S_3  
     e(  4 -  4) =      7.58580  eV     1   --> A_1  D_1  S_1  
     e(  5 -  5) =      7.66822  eV     1   --> B_2  D_4  S_4  
     e(  6 -  6) =      8.62690  eV     1   --> A_2  D_2  S_2  
     e(  7 -  7) =      8.65531  eV     1   --> B_1  D_3  S_3  
     e(  8 -  8) =      8.65574  eV     1   --> A_1  D_1  S_1  
     e(  9 -  9) =      8.76145  eV     1   --> B_2  D_4  S_4  
     e( 10 - 10) =      8.76199  eV     1   --> A_1  D_1  S_1  
     e( 11 - 11) =     10.06684  eV     1   --> B_2  D_4  S_4  
     e( 12 - 12) =     10.11953  eV     1   --> A_2  D_2  S_2  
     e( 13 - 13) =     10.13214  eV     1   --> A_1  D_1  S_1  
     e( 14 - 14) =     10.31320  eV     1   --> A_1  D_1  S_1  
     e( 15 - 15) =     10.38051  eV     1   --> B_1  D_3  S_3  
     e( 16 - 16) =     11.07587  eV     1   --> A_2  D_2  S_2  
     e( 17 - 17) =     11.14442  eV     1   --> B_1  D_3  S_3  
     e( 18 - 18) =     11.17457  eV     1   --> B_2  D_4  S_4  
     e( 19 - 19) =     11.20875  eV     1   --> B_1  D_3  S_3  
     e( 20 - 20) =     11.63697  eV     1   --> A_1  D_1  S_1  

 **************************************************************************

 **************************************************************************

                    xk=(   0.06667,  -0.06667,   0.00000  )

     Band symmetry, C_2v (mm2)  point group:

     e(  1 -  1) =     -4.37018  eV     1   --> A_1  D_1  S_1  
     e(  2 -  2) =      5.80837  eV     1   --> A_1  D_1  S_1  
     e(  3 -  3) =      7.59658  eV     1   --> B_1  D_3  S_3  
     e(  4 -  4) =      7.66867  eV     1   --> A_1  D_1  S_1  
     e(  5 -  5) =      7.72925  eV     1   --> B_2  D_4  S_4  
     e(  6 -  6) =      8.61078  eV     1   --> A_2  D_2  S_2  
     e(  7 -  7) =      8.63272  eV     1   --> A_1  D_1  S_1  
     e(  8 -  8) =      8.63646  eV     1   --> B_1  D_3  S_3  
     e(  9 -  9) =      8.70708  eV     1   --> B_2  D_4  S_4  
     e( 10 - 10) =      8.71092  eV     1   --> A_1  D_1  S_1  
     e( 11 - 11) =     10.07585  eV     1   --> B_2  D_4  S_4  
     e( 12 - 12) =     10.10947  eV     1   --> A_2  D_2  S_2  
     e( 13 - 13) =     10.11791  eV     1   --> A_1  D_1  S_1  
     e( 14 - 14) =     10.29539  eV     1   --> A_1  D_1  S_1  
     e( 15 - 15) =     10.35038  eV     1   --> B_1  D_3  S_3  
     e( 16 - 16) =     11.08537  eV     1   --> A_2  D_2  S_2  
     e( 17 - 17) =     11.13305  eV     1   --> B_1  D_3  S_3  
     e( 18 - 18) =     11.14860  eV     1   --> B_2  D_4  S_4  
     e( 19 - 19) =     11.21040  eV     1   --> B_1  D_3  S_3  
     e( 20 - 20) =     11.64563  eV     1   --> A_1  D_1  S_1  

 **************************************************************************

 **************************************************************************

                    xk=(   0.05000,  -0.05000,   0.00000  )

     Band symmetry, C_2v (mm2)  point group:

     e(  1 -  1) =     -4.38747  eV     1   --> A_1  D_1  S_1  
     e(  2 -  2) =      5.79779  eV     1   --> A_1  D_1  S_1  
     e(  3 -  3) =      7.70637  eV     1   --> B_1  D_3  S_3  
     e(  4 -  4) =      7.74465  eV     1   --> A_1  D_1  S_1  
     e(  5 -  5) =      7.78333  eV     1   --> B_2  D_4  S_4  
     e(  6 -  6) =      8.59809  eV     1   --> A_2  D_2  S_2  
     e(  7 -  7) =      8.61449  eV     1   --> A_1  D_1  S_1  
     e(  8 -  8) =      8.61947  eV     1   --> B_1  D_3  S_3  
     e(  9 -  9) =      8.65793  eV     1   --> B_2  D_4  S_4  
     e( 10 - 10) =      8.66275  eV     1   --> A_1  D_1  S_1  
     e( 11 - 11) =     10.08266  eV     1   --> B_2  D_4  S_4  
     e( 12 - 12) =     10.10154  eV     1   --> A_2  D_2  S_2  
     e( 13 - 13) =     10.10646  eV     1   --> A_1  D_1  S_1  
     e( 14 - 14) =     10.27950  eV     1   --> A_1  D_1  S_1  
     e( 15 - 15) =     10.31666  eV     1   --> B_1  D_3  S_3  
     e( 16 - 16) =     11.09276  eV     1   --> A_2  D_2  S_2  
     e( 17 - 17) =     11.11968  eV     1   --> B_1  D_3  S_3  
     e( 18 - 18) =     11.12833  eV     1   --> B_2  D_4  S_4  
     e( 19 - 19) =     11.21789  eV     1   --> B_1  D_3  S_3  
     e( 20 - 20) =     11.65103  eV     1   --> A_1  D_1  S_1  

 **************************************************************************

 **************************************************************************

                    xk=(   0.03333,  -0.03333,   0.00000  )

     Band symmetry, C_2v (mm2)  point group:

     e(  1 -  1) =     -4.39991  eV     1   --> A_1  D_1  S_1  
     e(  2 -  2) =      5.78945  eV     1   --> A_1  D_1  S_1  
     e(  3 -  3) =      7.79154  eV     1   --> B_1  D_3  S_3  
     e(  4 -  4) =      7.80789  eV     1   --> A_1  D_1  S_1  
     e(  5 -  5) =      7.82660  eV     1   --> B_2  D_4  S_4  
     e(  6 -  6) =      8.58887  eV     1   --> A_2  D_2  S_2  
     e(  7 -  7) =      8.60119  eV     1   --> A_1  D_1  S_1  
     e(  8 -  8) =      8.60514  eV     1   --> B_1  D_3  S_3  
     e(  9 -  9) =      8.61767  eV     1   --> B_2  D_4  S_4  
     e( 10 - 10) =      8.62185  eV     1   --> A_1  D_1  S_1  
     e( 11 - 11) =     10.08745  eV     1   --> B_2  D_4  S_4  
     e( 12 - 12) =     10.09584  eV     1   --> A_2  D_2  S_2  
     e( 13 - 13) =     10.09818  eV     1   --> A_1  D_1  S_1  
     e( 14 - 14) =     10.26694  eV     1   --> A_1  D_1  S_1  
     e( 15 - 15) =     10.28571  eV     1   --> B_1  D_3  S_3  
     e( 16 - 16) =     11.09804  eV     1   --> A_2  D_2  S_2  
     e( 17 - 17) =     11.10977  eV     1   --> B_1  D_3  S_3  
     e( 18 - 18) =     11.11384  eV     1   --> B_2  D_4  S_4  
     e( 19 - 19) =     11.22491  eV     1   --> B_1  D_3  S_3  
     e( 20 - 20) =     11.65417  eV     1   --> A_1  D_1  S_1  

 **************************************************************************

 **************************************************************************

                    xk=(   0.01667,  -0.01667,   0.00000  )

     Band symmetry, C_2v (mm2)  point group:

     e(  1 -  1) =     -4.40741  eV     1   --> A_1  D_1  S_1  
     e(  2 -  2) =      5.78416  eV     1   --> A_1  D_1  S_1  
     e(  3 -  3) =      7.84628  eV     1   --> B_1  D_3  S_3  
     e(  4 -  4) =      7.85058  eV     1   --> A_1  D_1  S_1  
     e(  5 -  5) =      7.85531  eV     1   --> B_2  D_4  S_4  
     e(  6 -  6) =      8.58341  eV     1   --> A_2  D_2  S_2  
     e(  7 -  7) =      8.59035  eV     1   --> A_1  D_1  S_1  
     e(  8 -  8) =      8.59095  eV     1   --> B_2  D_4  S_4  
     e(  9 -  9) =      8.59531  eV     1   --> B_1  D_3  S_3  
     e( 10 - 10) =      8.59597  eV     1   --> A_1  D_1  S_1  
     e( 11 - 11) =     10.09031  eV     1   --> B_2  D_4  S_4  
     e( 12 - 12) =     10.09241  eV     1   --> A_2  D_2  S_2  
     e( 13 - 13) =     10.09303  eV     1   --> A_1  D_1  S_1  
     e( 14 - 14) =     10.25895  eV     1   --> A_1  D_1  S_1  
     e( 15 - 15) =     10.26402  eV     1   --> B_1  D_3  S_3  
     e( 16 - 16) =     11.10118  eV     1   --> A_2  D_2  S_2  
     e( 17 - 17) =     11.10406  eV     1   --> B_1  D_3  S_3  
     e( 18 - 18) =     11.10517  eV     1   --> B_2  D_4  S_4  
     e( 19 - 19) =     11.22956  eV     1   --> B_1  D_3  S_3  
     e( 20 - 20) =     11.65585  eV     1   --> A_1  D_1  S_1  

 **************************************************************************

 **************************************************************************

                    xk=(   0.00000,   0.00000,   0.00000  )

     point group O_h (m-3m) 
     there are 10 classes
     the character table:

       E     8C3   3C2   6C4   6C2'  i     8S6   3s_h  6S4   6s_d 
A_1g   1.00  1.00  1.00  1.00  1.00  1.00  1.00  1.00  1.00  1.00
A_2g   1.00  1.00  1.00 -1.00 -1.00  1.00  1.00  1.00 -1.00 -1.00
E_g    2.00 -1.00  2.00  0.00  0.00  2.00 -1.00  2.00  0.00  0.00
T_1g   3.00  0.00 -1.00  1.00 -1.00  3.00  0.00 -1.00  1.00 -1.00
T_2g   3.00  0.00 -1.00 -1.00  1.00  3.00  0.00 -1.00 -1.00  1.00
A_1u   1.00  1.00  1.00  1.00  1.00 -1.00 -1.00 -1.00 -1.00 -1.00
A_2u   1.00  1.00  1.00 -1.00 -1.00 -1.00 -1.00 -1.00  1.00  1.00
E_u    2.00 -1.00  2.00  0.00  0.00 -2.00  1.00 -2.00  0.00  0.00
T_1u   3.00  0.00 -1.00  1.00 -1.00 -3.00  0.00  1.00 -1.00  1.00
T_2u   3.00  0.00 -1.00 -1.00  1.00 -3.00  0.00  1.00  1.00 -1.00

     the symmetry operations in each class and the name of the first element:

     E        1
                                                                 
     8C3     17   19   20   18   24   21   22   23
                                                                 
     3C2      2    4    3
                                                                 
     6C4      7    8   15   16   12   11
                                                                 
     6C2'     5    6   14   13   10    9
                                                                 
     i       25
                                                                 
     8S6     41   43   44   42   48   45   46   47
                                                                 
     3s_h    26   28   27
                                                                 
     6S4     31   32   39   40   36   35
                                                                 
     6s_d    29   30   38   37   34   33
                                                                 

     Band symmetry, O_h (m-3m)  point group:

     e(  1 -  1) =     -4.40997  eV     1   --> A_1g G_1   G_1+
     e(  2 -  2) =      5.78227  eV     1   --> A_1g G_1   G_1+
     e(  3 -  5) =      7.86505  eV     3   --> T_1u G_15  G_4-
     e(  6 -  8) =      8.58118  eV     3   --> T_2g G_25' G_5+
     e(  9 - 10) =      8.59158  eV     2   --> E_g  G_12  G_3+
     e( 11 - 13) =     10.09123  eV     3   --> T_2g G_25' G_5+
     e( 14 - 15) =     10.25614  eV     2   --> E_g  G_12  G_3+
     e( 16 - 18) =     11.10217  eV     3   --> T_1g G_15' G_4+
     e( 19 - 19) =     11.23109  eV     1   --> A_2g G_2   G_2+
     e( 20 - 20) =     11.65630  eV     1   -->   ?

 **************************************************************************

     BANDS        :     8.47s CPU        30.83s WALL


   This run was terminated on:  14:28:15  23Apr2020            

=------------------------------------------------------------------------------=
   JOB DONE.
=------------------------------------------------------------------------------=
