--------------------------------------------------------------------------
WARNING: Linux kernel CMA support was requested via the
btl_vader_single_copy_mechanism MCA variable, but CMA support is
not available due to restrictive ptrace settings.

The vader shared memory BTL will fall back on another single-copy
mechanism if one is available. This may result in lower performance.

  Local host: DESKTOP-L90FV74
--------------------------------------------------------------------------

     Program BANDS v.6.0 (svn rev. 13079) starts on  4Aug2020 at 13:47:12 

     This program is part of the open-source Quantum ESPRESSO suite
     for quantum simulation of materials; please cite
         "P. Giannozzi et al., J. Phys.:Condens. Matter 21 395502 (2009);
          URL http://www.quantum-espresso.org", 
     in publications or presentations arising from this work. More details at
     http://www.quantum-espresso.org/quote

     Parallel version (MPI), running on    15 processors
     R & G space division:  proc/nbgrp/npool/nimage =      15

     Reading data from directory:
     ./tmp/Cu2N.save

   Info: using nr1, nr2, nr3 values from input

   Info: using nr1, nr2, nr3 values from input

     IMPORTANT: XC functional enforced from input :
     Exchange-correlation      =  SLA  PW   PBX  PBC ( 1  4  3  4 0 0)
     Any further DFT definition will be discarded
     Please, verify this is what you really want

               file Cu.pbe-dn-kjpaw_psl.1.0.0.UPF: wavefunction(s)  4S 3D renormalized
               file N.pbe-n-kjpaw_psl.1.0.0.UPF: wavefunction(s)  2S renormalized

     Parallelization info
     --------------------
     sticks:   dense  smooth     PW     G-vecs:    dense   smooth      PW
     Min          41      41     12                  783      783     128
     Max          42      42     13                  786      786     131
     Sum         621     621    185                11753    11753    1935

     Generating pointlists ...
     new r_m :   0.1969 (alat units)  1.3792 (a.u.) for type    1
     new r_m :   0.1969 (alat units)  1.3792 (a.u.) for type    2

     Check: negative/imaginary core charge=   -0.000012    0.000000
     high-symmetry point:  0.0000 0.0000 0.0000   x coordinate   0.0000
     high-symmetry point:  0.5000 0.0000 0.0000   x coordinate   0.5000
     high-symmetry point:  0.5000-0.5001 0.0000   x coordinate   1.0001
     high-symmetry point:  0.0000 0.0000 0.0000   x coordinate   1.7072

     Plottable bands (eV) written to file Cu2N.bands.gnu
     Bands written to file Cu2N.bands

 **************************************************************************

                    xk=(   0.00000,   0.00000,   0.00000  )

     point group C_2v (mm2) 
     there are  4 classes
     the character table:

       E     C2    s_v   s_v' 
A_1    1.00  1.00  1.00  1.00
A_2    1.00  1.00 -1.00 -1.00
B_1    1.00 -1.00  1.00 -1.00
B_2    1.00 -1.00 -1.00  1.00

     the symmetry operations in each class and the name of the first element:

     E        1
                                                                 
     C2       2
                                                                 
     s_v      3
                                                                 
     s_v'     4
                                                                 

     Band symmetry, C_2v (mm2)  point group:

     e(  1 -  1) =     -4.35196  eV     1   --> A_1  D_1  S_1  
     e(  2 -  2) =      5.88192  eV     1   --> A_1  D_1  S_1  
     e(  3 -  3) =      7.87472  eV     1   --> B_1  D_3  S_3  
     e(  4 -  4) =      7.87514  eV     1   --> B_2  D_4  S_4  
     e(  5 -  5) =      7.98416  eV     1   --> A_1  D_1  S_1  
     e(  6 -  6) =      8.69131  eV     1   --> A_2  D_2  S_2  
     e(  7 -  7) =      8.70515  eV     1   --> A_1  D_1  S_1  
     e(  8 -  8) =      8.71349  eV     1   --> A_1  D_1  S_1  
     e(  9 -  9) =      8.78014  eV     1   --> B_2  D_4  S_4  
     e( 10 - 10) =      8.78025  eV     1   --> B_1  D_3  S_3  
     e( 11 - 11) =     10.23597  eV     1   --> B_2  D_4  S_4  
     e( 12 - 12) =     10.23629  eV     1   --> B_1  D_3  S_3  
     e( 13 - 13) =     10.23846  eV     1   --> A_2  D_2  S_2  
     e( 14 - 14) =     10.38940  eV     1   --> A_1  D_1  S_1  
     e( 15 - 15) =     10.40340  eV     1   --> A_1  D_1  S_1  
     e( 16 - 17) =     11.26857  eV     2   --> B_1  D_3  S_3  
     e( 16 - 17) =     11.26857  eV     2   --> B_2  D_4  S_4  
     e( 18 - 18) =     11.27241  eV     1   --> A_2  D_2  S_2  
     e( 19 - 19) =     11.39802  eV     1   --> A_1  D_1  S_1  
     e( 20 - 20) =     11.82865  eV     1   --> A_1  D_1  S_1  
     e( 21 - 21) =     11.84176  eV     1   --> A_1  D_1  S_1  
     e( 22 - 22) =     12.12756  eV     1   --> A_2  D_2  S_2  
     e( 23 - 23) =     12.13466  eV     1   --> B_1  D_3  S_3  
     e( 24 - 24) =     12.13505  eV     1   --> B_2  D_4  S_4  
     e( 25 - 25) =     14.02960  eV     1   --> A_1  D_1  S_1  
     e( 26 - 26) =     17.99114  eV     1   --> B_1  D_3  S_3  
     e( 27 - 27) =     17.99274  eV     1   --> B_2  D_4  S_4  
     e( 28 - 28) =     18.01398  eV     1   --> A_1  D_1  S_1  
     e( 29 - 29) =     19.24967  eV     1   --> A_1  D_1  S_1  
     e( 30 - 30) =     19.25432  eV     1   --> A_1  D_1  S_1  
     e( 31 - 31) =     25.38907  eV     1   --> B_1  D_3  S_3  
     e( 32 - 32) =     25.39025  eV     1   --> B_2  D_4  S_4  
     e( 33 - 33) =     25.40813  eV     1   --> A_1  D_1  S_1  
     e( 34 - 34) =     25.64601  eV     1   --> A_1  D_1  S_1  
     e( 35 - 35) =     29.10491  eV     1   --> B_1  D_3  S_3  
     e( 36 - 36) =     29.10709  eV     1   --> B_2  D_4  S_4  
     e( 37 - 37) =     29.12550  eV     1   --> A_2  D_2  S_2  
     e( 38 - 38) =     31.01838  eV     1   --> A_1  D_1  S_1  
     e( 39 - 39) =     31.20417  eV     1   --> B_1  D_3  S_3  
     e( 40 - 40) =     31.20550  eV     1   --> B_2  D_4  S_4  

 **************************************************************************

 **************************************************************************

                    xk=(   0.01667,   0.00000,   0.00000  )

     point group C_s (m)    
     there are  2 classes
     the character table:

       E     s    
A'     1.00  1.00
A''    1.00 -1.00

     the symmetry operations in each class and the name of the first element:

     E        1
                                                                 
     s        2
                                                                 

     Band symmetry, C_s (m)     point group:

     e(  1 -  1) =     -4.35069  eV     1   --> A'             
     e(  2 -  2) =      5.88281  eV     1   --> A'             
     e(  3 -  3) =      7.86318  eV     1   --> A'             
     e(  4 -  4) =      7.87098  eV     1   --> A''            
     e(  5 -  5) =      7.98081  eV     1   --> A'             
     e(  6 -  6) =      8.69243  eV     1   --> A''            
     e(  7 -  7) =      8.70557  eV     1   --> A'             
     e(  8 -  8) =      8.71497  eV     1   --> A'             
     e(  9 -  9) =      8.78374  eV     1   --> A''            
     e( 10 - 10) =      8.78447  eV     1   --> A'             
     e( 11 - 11) =     10.23372  eV     1   --> A''            
     e( 12 - 12) =     10.23706  eV     1   --> A'             
     e( 13 - 13) =     10.24080  eV     1   --> A''            
     e( 14 - 14) =     10.39054  eV     1   --> A'             
     e( 15 - 15) =     10.40768  eV     1   --> A'             
     e( 16 - 16) =     11.26462  eV     1   --> A''            
     e( 17 - 17) =     11.26931  eV     1   --> A'             
     e( 18 - 18) =     11.27728  eV     1   --> A''            
     e( 19 - 19) =     11.39722  eV     1   --> A'             
     e( 20 - 20) =     11.82870  eV     1   --> A'             
     e( 21 - 21) =     11.84151  eV     1   --> A'             
     e( 22 - 22) =     12.12541  eV     1   --> A''            
     e( 23 - 23) =     12.13286  eV     1   --> A'             
     e( 24 - 24) =     12.13539  eV     1   --> A''            
     e( 25 - 25) =     14.03275  eV     1   --> A'             
     e( 26 - 26) =     17.95220  eV     1   --> A'             
     e( 27 - 27) =     17.99538  eV     1   --> A''            
     e( 28 - 28) =     18.02096  eV     1   --> A'             
     e( 29 - 29) =     19.25265  eV     1   --> A'             
     e( 30 - 30) =     19.28927  eV     1   --> A'             
     e( 31 - 31) =     25.36470  eV     1   --> A'             
     e( 32 - 32) =     25.37824  eV     1   --> A''            
     e( 33 - 33) =     25.40272  eV     1   --> A'             
     e( 34 - 34) =     25.65528  eV     1   --> A'             
     e( 35 - 35) =     29.10298  eV     1   --> A''            
     e( 36 - 36) =     29.11607  eV     1   --> A'             
     e( 37 - 37) =     29.14194  eV     1   --> A''            
     e( 38 - 38) =     31.02464  eV     1   --> A'             
     e( 39 - 39) =     31.15087  eV     1   --> A'             
     e( 40 - 40) =     31.20812  eV     1   --> A''            

 **************************************************************************

 **************************************************************************

                    xk=(   0.03333,   0.00000,   0.00000  )

     Band symmetry, C_s (m)     point group:

     e(  1 -  1) =     -4.34693  eV     1   --> A'             
     e(  2 -  2) =      5.88534  eV     1   --> A'             
     e(  3 -  3) =      7.82982  eV     1   --> A'             
     e(  4 -  4) =      7.85867  eV     1   --> A''            
     e(  5 -  5) =      7.96952  eV     1   --> A'             
     e(  6 -  6) =      8.69530  eV     1   --> A''            
     e(  7 -  7) =      8.70744  eV     1   --> A'             
     e(  8 -  8) =      8.71939  eV     1   --> A'             
     e(  9 -  9) =      8.79433  eV     1   --> A''            
     e( 10 - 10) =      8.79578  eV     1   --> A'             
     e( 11 - 11) =     10.23008  eV     1   --> A''            
     e( 12 - 12) =     10.23934  eV     1   --> A'             
     e( 13 - 13) =     10.24467  eV     1   --> A''            
     e( 14 - 14) =     10.39203  eV     1   --> A'             
     e( 15 - 15) =     10.42182  eV     1   --> A'             
     e( 16 - 16) =     11.25993  eV     1   --> A''            
     e( 17 - 17) =     11.27149  eV     1   --> A'             
     e( 18 - 18) =     11.28455  eV     1   --> A''            
     e( 19 - 19) =     11.39480  eV     1   --> A'             
     e( 20 - 20) =     11.82874  eV     1   --> A'             
     e( 21 - 21) =     11.84078  eV     1   --> A'             
     e( 22 - 22) =     12.11948  eV     1   --> A''            
     e( 23 - 23) =     12.12744  eV     1   --> A'             
     e( 24 - 24) =     12.13586  eV     1   --> A''            
     e( 25 - 25) =     14.04215  eV     1   --> A'             
     e( 26 - 26) =     17.85658  eV     1   --> A'             
     e( 27 - 27) =     18.00319  eV     1   --> A''            
     e( 28 - 28) =     18.03051  eV     1   --> A'             
     e( 29 - 29) =     19.25613  eV     1   --> A'             
     e( 30 - 30) =     19.38917  eV     1   --> A'             
     e( 31 - 31) =     25.30512  eV     1   --> A'             
     e( 32 - 32) =     25.34283  eV     1   --> A''            
     e( 33 - 33) =     25.37444  eV     1   --> A'             
     e( 34 - 34) =     25.68305  eV     1   --> A'             
     e( 35 - 35) =     29.10119  eV     1   --> A''            
     e( 36 - 36) =     29.14576  eV     1   --> A'             
     e( 37 - 37) =     29.17650  eV     1   --> A''            
     e( 38 - 38) =     30.99867  eV     1   --> A'             
     e( 39 - 39) =     31.11313  eV     1   --> A'             
     e( 40 - 40) =     31.21624  eV     1   --> A''            

 **************************************************************************

 **************************************************************************

                    xk=(   0.05000,   0.00000,   0.00000  )

     Band symmetry, C_s (m)     point group:

     e(  1 -  1) =     -4.34064  eV     1   --> A'             
     e(  2 -  2) =      5.88933  eV     1   --> A'             
     e(  3 -  3) =      7.77913  eV     1   --> A'             
     e(  4 -  4) =      7.83892  eV     1   --> A''            
     e(  5 -  5) =      7.94908  eV     1   --> A'             
     e(  6 -  6) =      8.70002  eV     1   --> A''            
     e(  7 -  7) =      8.71204  eV     1   --> A'             
     e(  8 -  8) =      8.72705  eV     1   --> A'             
     e(  9 -  9) =      8.81133  eV     1   --> A''            
     e( 10 - 10) =      8.81304  eV     1   --> A'             
     e( 11 - 11) =     10.22543  eV     1   --> A''            
     e( 12 - 12) =     10.24323  eV     1   --> A'             
     e( 13 - 13) =     10.24971  eV     1   --> A''            
     e( 14 - 14) =     10.39298  eV     1   --> A'             
     e( 15 - 15) =     10.44508  eV     1   --> A'             
     e( 16 - 16) =     11.25579  eV     1   --> A''            
     e( 17 - 17) =     11.27515  eV     1   --> A'             
     e( 18 - 18) =     11.29297  eV     1   --> A''            
     e( 19 - 19) =     11.39084  eV     1   --> A'             
     e( 20 - 20) =     11.82868  eV     1   --> A'             
     e( 21 - 21) =     11.83976  eV     1   --> A'             
     e( 22 - 22) =     12.11020  eV     1   --> A''            
     e( 23 - 23) =     12.11850  eV     1   --> A'             
     e( 24 - 24) =     12.13608  eV     1   --> A''            
     e( 25 - 25) =     14.05771  eV     1   --> A'             
     e( 26 - 26) =     17.72356  eV     1   --> A'             
     e( 27 - 27) =     18.01606  eV     1   --> A''            
     e( 28 - 28) =     18.04373  eV     1   --> A'             
     e( 29 - 29) =     19.26201  eV     1   --> A'             
     e( 30 - 30) =     19.53279  eV     1   --> A'             
     e( 31 - 31) =     25.21698  eV     1   --> A'             
     e( 32 - 32) =     25.28578  eV     1   --> A''            
     e( 33 - 33) =     25.32097  eV     1   --> A'             
     e( 34 - 34) =     25.72913  eV     1   --> A'             
     e( 35 - 35) =     29.10233  eV     1   --> A''            
     e( 36 - 36) =     29.19555  eV     1   --> A'             
     e( 37 - 37) =     29.22805  eV     1   --> A''            
     e( 38 - 38) =     30.90216  eV     1   --> A'             
     e( 39 - 39) =     31.15195  eV     1   --> A'             
     e( 40 - 40) =     31.23083  eV     1   --> A''            

 **************************************************************************

 **************************************************************************

                    xk=(   0.06667,   0.00000,   0.00000  )

     Band symmetry, C_s (m)     point group:

     e(  1 -  1) =     -4.33183  eV     1   --> A'             
     e(  2 -  2) =      5.89429  eV     1   --> A'             
     e(  3 -  3) =      7.71477  eV     1   --> A'             
     e(  4 -  4) =      7.81323  eV     1   --> A''            
     e(  5 -  5) =      7.92055  eV     1   --> A'             
     e(  6 -  6) =      8.70637  eV     1   --> A''            
     e(  7 -  7) =      8.71979  eV     1   --> A'             
     e(  8 -  8) =      8.73773  eV     1   --> A'             
     e(  9 -  9) =      8.83468  eV     1   --> A''            
     e( 10 - 10) =      8.83526  eV     1   --> A'             
     e( 11 - 11) =     10.21962  eV     1   --> A''            
     e( 12 - 12) =     10.24874  eV     1   --> A'             
     e( 13 - 13) =     10.25615  eV     1   --> A''            
     e( 14 - 14) =     10.39374  eV     1   --> A'             
     e( 15 - 15) =     10.47470  eV     1   --> A'             
     e( 16 - 16) =     11.25229  eV     1   --> A''            
     e( 17 - 17) =     11.28036  eV     1   --> A'             
     e( 18 - 18) =     11.30262  eV     1   --> A''            
     e( 19 - 19) =     11.38543  eV     1   --> A'             
     e( 20 - 20) =     11.82815  eV     1   --> A'             
     e( 21 - 21) =     11.83880  eV     1   --> A'             
     e( 22 - 22) =     12.09778  eV     1   --> A''            
     e( 23 - 23) =     12.10628  eV     1   --> A'             
     e( 24 - 24) =     12.13621  eV     1   --> A''            
     e( 25 - 25) =     14.07926  eV     1   --> A'             
     e( 26 - 26) =     17.56926  eV     1   --> A'             
     e( 27 - 27) =     18.03414  eV     1   --> A''            
     e( 28 - 28) =     18.06174  eV     1   --> A'             
     e( 29 - 29) =     19.27028  eV     1   --> A'             
     e( 30 - 30) =     19.70359  eV     1   --> A'             
     e( 31 - 31) =     25.10355  eV     1   --> A'             
     e( 32 - 32) =     25.20982  eV     1   --> A''            
     e( 33 - 33) =     25.24551  eV     1   --> A'             
     e( 34 - 34) =     25.79322  eV     1   --> A'             
     e( 35 - 35) =     29.10998  eV     1   --> A''            
     e( 36 - 36) =     29.26262  eV     1   --> A'             
     e( 37 - 37) =     29.29455  eV     1   --> A''            
     e( 38 - 38) =     30.78711  eV     1   --> A'             
     e( 39 - 39) =     31.21016  eV     1   --> A'             
     e( 40 - 40) =     31.25408  eV     1   --> A''            

 **************************************************************************

 **************************************************************************

                    xk=(   0.08333,   0.00000,   0.00000  )

     Band symmetry, C_s (m)     point group:

     e(  1 -  1) =     -4.32069  eV     1   --> A'             
     e(  2 -  2) =      5.89942  eV     1   --> A'             
     e(  3 -  3) =      7.63871  eV     1   --> A'             
     e(  4 -  4) =      7.78245  eV     1   --> A''            
     e(  5 -  5) =      7.88519  eV     1   --> A'             
     e(  6 -  6) =      8.71383  eV     1   --> A''            
     e(  7 -  7) =      8.72971  eV     1   --> A'             
     e(  8 -  8) =      8.75124  eV     1   --> A'             
     e(  9 -  9) =      8.86129  eV     1   --> A'             
     e( 10 - 10) =      8.86286  eV     1   --> A''            
     e( 11 - 11) =     10.21251  eV     1   --> A''            
     e( 12 - 12) =     10.25579  eV     1   --> A'             
     e( 13 - 13) =     10.26402  eV     1   --> A''            
     e( 14 - 14) =     10.39450  eV     1   --> A'             
     e( 15 - 15) =     10.50773  eV     1   --> A'             
     e( 16 - 16) =     11.24928  eV     1   --> A''            
     e( 17 - 17) =     11.28691  eV     1   --> A'             
     e( 18 - 18) =     11.31345  eV     1   --> A''            
     e( 19 - 19) =     11.37863  eV     1   --> A'             
     e( 20 - 20) =     11.82666  eV     1   --> A'             
     e( 21 - 21) =     11.83820  eV     1   --> A'             
     e( 22 - 22) =     12.08222  eV     1   --> A''            
     e( 23 - 23) =     12.09081  eV     1   --> A'             
     e( 24 - 24) =     12.13623  eV     1   --> A''            
     e( 25 - 25) =     14.10644  eV     1   --> A'             
     e( 26 - 26) =     17.40374  eV     1   --> A'             
     e( 27 - 27) =     18.05692  eV     1   --> A''            
     e( 28 - 28) =     18.08425  eV     1   --> A'             
     e( 29 - 29) =     19.28093  eV     1   --> A'             
     e( 30 - 30) =     19.89101  eV     1   --> A'             
     e( 31 - 31) =     24.96828  eV     1   --> A'             
     e( 32 - 32) =     25.11794  eV     1   --> A''            
     e( 33 - 33) =     25.15200  eV     1   --> A'             
     e( 34 - 34) =     25.87483  eV     1   --> A'             
     e( 35 - 35) =     29.12079  eV     1   --> A''            
     e( 36 - 36) =     29.33825  eV     1   --> A'             
     e( 37 - 37) =     29.36801  eV     1   --> A''            
     e( 38 - 38) =     30.66345  eV     1   --> A'             
     e( 39 - 39) =     31.27293  eV     1   --> A'             
     e( 40 - 40) =     31.28806  eV     1   --> A''            

 **************************************************************************

 **************************************************************************

                    xk=(   0.10000,   0.00000,   0.00000  )

     Band symmetry, C_s (m)     point group:

     e(  1 -  1) =     -4.30726  eV     1   --> A'             
     e(  2 -  2) =      5.90372  eV     1   --> A'             
     e(  3 -  3) =      7.55446  eV     1   --> A'             
     e(  4 -  4) =      7.74777  eV     1   --> A''            
     e(  5 -  5) =      7.84506  eV     1   --> A'             
     e(  6 -  6) =      8.72244  eV     1   --> A''            
     e(  7 -  7) =      8.74077  eV     1   --> A'             
     e(  8 -  8) =      8.76764  eV     1   --> A'             
     e(  9 -  9) =      8.89077  eV     1   --> A'             
     e( 10 - 10) =      8.89474  eV     1   --> A''            
     e( 11 - 11) =     10.20407  eV     1   --> A''            
     e( 12 - 12) =     10.26429  eV     1   --> A'             
     e( 13 - 13) =     10.27332  eV     1   --> A''            
     e( 14 - 14) =     10.39531  eV     1   --> A'             
     e( 15 - 15) =     10.54131  eV     1   --> A'             
     e( 16 - 16) =     11.24669  eV     1   --> A''            
     e( 17 - 17) =     11.29457  eV     1   --> A'             
     e( 18 - 18) =     11.32552  eV     1   --> A''            
     e( 19 - 19) =     11.37082  eV     1   --> A'             
     e( 20 - 20) =     11.82405  eV     1   --> A'             
     e( 21 - 21) =     11.83799  eV     1   --> A'             
     e( 22 - 22) =     12.06371  eV     1   --> A''            
     e( 23 - 23) =     12.07233  eV     1   --> A'             
     e( 24 - 24) =     12.13618  eV     1   --> A''            
     e( 25 - 25) =     14.13887  eV     1   --> A'             
     e( 26 - 26) =     17.23363  eV     1   --> A'             
     e( 27 - 27) =     18.08416  eV     1   --> A''            
     e( 28 - 28) =     18.11109  eV     1   --> A'             
     e( 29 - 29) =     19.29401  eV     1   --> A'             
     e( 30 - 30) =     20.08921  eV     1   --> A'             
     e( 31 - 31) =     24.81485  eV     1   --> A'             
     e( 32 - 32) =     25.01334  eV     1   --> A''            
     e( 33 - 33) =     25.04449  eV     1   --> A'             
     e( 34 - 34) =     25.97334  eV     1   --> A'             
     e( 35 - 35) =     29.13454  eV     1   --> A''            
     e( 36 - 36) =     29.41761  eV     1   --> A'             
     e( 37 - 37) =     29.44363  eV     1   --> A''            
     e( 38 - 38) =     30.53374  eV     1   --> A'             
     e( 39 - 39) =     31.33575  eV     1   --> A''            
     e( 40 - 40) =     31.34055  eV     1   --> A'             

 **************************************************************************

 **************************************************************************

                    xk=(   0.11667,   0.00000,   0.00000  )

     Band symmetry, C_s (m)     point group:

     e(  1 -  1) =     -4.29163  eV     1   --> A'             
     e(  2 -  2) =      5.90584  eV     1   --> A'             
     e(  3 -  3) =      7.46637  eV     1   --> A'             
     e(  4 -  4) =      7.71024  eV     1   --> A''            
     e(  5 -  5) =      7.80194  eV     1   --> A'             
     e(  6 -  6) =      8.73217  eV     1   --> A''            
     e(  7 -  7) =      8.75188  eV     1   --> A'             
     e(  8 -  8) =      8.78700  eV     1   --> A'             
     e(  9 -  9) =      8.92319  eV     1   --> A'             
     e( 10 - 10) =      8.92924  eV     1   --> A''            
     e( 11 - 11) =     10.19432  eV     1   --> A''            
     e( 12 - 12) =     10.27421  eV     1   --> A'             
     e( 13 - 13) =     10.28405  eV     1   --> A''            
     e( 14 - 14) =     10.39619  eV     1   --> A'             
     e( 15 - 15) =     10.57326  eV     1   --> A'             
     e( 16 - 16) =     11.24445  eV     1   --> A''            
     e( 17 - 17) =     11.30251  eV     1   --> A'             
     e( 18 - 18) =     11.33882  eV     1   --> A''            
     e( 19 - 19) =     11.36288  eV     1   --> A'             
     e( 20 - 20) =     11.82050  eV     1   --> A'             
     e( 21 - 21) =     11.83798  eV     1   --> A'             
     e( 22 - 22) =     12.04249  eV     1   --> A''            
     e( 23 - 23) =     12.05110  eV     1   --> A'             
     e( 24 - 24) =     12.13608  eV     1   --> A''            
     e( 25 - 25) =     14.17601  eV     1   --> A'             
     e( 26 - 26) =     17.06325  eV     1   --> A'             
     e( 27 - 27) =     18.11551  eV     1   --> A''            
     e( 28 - 28) =     18.14196  eV     1   --> A'             
     e( 29 - 29) =     19.30956  eV     1   --> A'             
     e( 30 - 30) =     20.29495  eV     1   --> A'             
     e( 31 - 31) =     24.64687  eV     1   --> A'             
     e( 32 - 32) =     24.89907  eV     1   --> A''            
     e( 33 - 33) =     24.92667  eV     1   --> A'             
     e( 34 - 34) =     26.08807  eV     1   --> A'             
     e( 35 - 35) =     29.15106  eV     1   --> A''            
     e( 36 - 36) =     29.49457  eV     1   --> A'             
     e( 37 - 37) =     29.51551  eV     1   --> A''            
     e( 38 - 38) =     30.39926  eV     1   --> A'             
     e( 39 - 39) =     31.40032  eV     1   --> A''            
     e( 40 - 40) =     31.41745  eV     1   --> A'             

 **************************************************************************

 **************************************************************************

                    xk=(   0.13333,   0.00000,   0.00000  )

     Band symmetry, C_s (m)     point group:

     e(  1 -  1) =     -4.27392  eV     1   --> A'             
     e(  2 -  2) =      5.90396  eV     1   --> A'             
     e(  3 -  3) =      7.37818  eV     1   --> A'             
     e(  4 -  4) =      7.67099  eV     1   --> A''            
     e(  5 -  5) =      7.75731  eV     1   --> A'             
     e(  6 -  6) =      8.74319  eV     1   --> A''            
     e(  7 -  7) =      8.76243  eV     1   --> A'             
     e(  8 -  8) =      8.80928  eV     1   --> A'             
     e(  9 -  9) =      8.95779  eV     1   --> A'             
     e( 10 - 10) =      8.96542  eV     1   --> A''            
     e( 11 - 11) =     10.18328  eV     1   --> A''            
     e( 12 - 12) =     10.28520  eV     1   --> A'             
     e( 13 - 13) =     10.29590  eV     1   --> A''            
     e( 14 - 14) =     10.39711  eV     1   --> A'             
     e( 15 - 15) =     10.60147  eV     1   --> A'             
     e( 16 - 16) =     11.24250  eV     1   --> A''            
     e( 17 - 17) =     11.30832  eV     1   --> A'             
     e( 18 - 18) =     11.35333  eV     1   --> A''            
     e( 19 - 19) =     11.35728  eV     1   --> A'             
     e( 20 - 20) =     11.81623  eV     1   --> A'             
     e( 21 - 21) =     11.83769  eV     1   --> A'             
     e( 22 - 22) =     12.01891  eV     1   --> A''            
     e( 23 - 23) =     12.02743  eV     1   --> A'             
     e( 24 - 24) =     12.13595  eV     1   --> A''            
     e( 25 - 25) =     14.21717  eV     1   --> A'             
     e( 26 - 26) =     16.89531  eV     1   --> A'             
     e( 27 - 27) =     18.15067  eV     1   --> A''            
     e( 28 - 28) =     18.17653  eV     1   --> A'             
     e( 29 - 29) =     19.32764  eV     1   --> A'             
     e( 30 - 30) =     20.50620  eV     1   --> A'             
     e( 31 - 31) =     24.46772  eV     1   --> A'             
     e( 32 - 32) =     24.77794  eV     1   --> A''            
     e( 33 - 33) =     24.80183  eV     1   --> A'             
     e( 34 - 34) =     26.21814  eV     1   --> A'             
     e( 35 - 35) =     29.17187  eV     1   --> A''            
     e( 36 - 36) =     29.56353  eV     1   --> A'             
     e( 37 - 37) =     29.57832  eV     1   --> A''            
     e( 38 - 38) =     30.26061  eV     1   --> A'             
     e( 39 - 39) =     31.48445  eV     1   --> A''            
     e( 40 - 40) =     31.50849  eV     1   --> A'             

 **************************************************************************

 **************************************************************************

                    xk=(   0.15000,   0.00000,   0.00000  )

     Band symmetry, C_s (m)     point group:

     e(  1 -  1) =     -4.25435  eV     1   --> A'             
     e(  2 -  2) =      5.89590  eV     1   --> A'             
     e(  3 -  3) =      7.29444  eV     1   --> A'             
     e(  4 -  4) =      7.63034  eV     1   --> A''            
     e(  5 -  5) =      7.71175  eV     1   --> A'             
     e(  6 -  6) =      8.75516  eV     1   --> A''            
     e(  7 -  7) =      8.77188  eV     1   --> A'             
     e(  8 -  8) =      8.83433  eV     1   --> A'             
     e(  9 -  9) =      8.99380  eV     1   --> A'             
     e( 10 - 10) =      9.00239  eV     1   --> A''            
     e( 11 - 11) =     10.17105  eV     1   --> A''            
     e( 12 - 12) =     10.29751  eV     1   --> A'             
     e( 13 - 13) =     10.30923  eV     1   --> A''            
     e( 14 - 14) =     10.39817  eV     1   --> A'             
     e( 15 - 15) =     10.62446  eV     1   --> A'             
     e( 16 - 16) =     11.24078  eV     1   --> A''            
     e( 17 - 17) =     11.30723  eV     1   --> A'             
     e( 18 - 18) =     11.35870  eV     1   --> A'             
     e( 19 - 19) =     11.36898  eV     1   --> A''            
     e( 20 - 20) =     11.81138  eV     1   --> A'             
     e( 21 - 21) =     11.83673  eV     1   --> A'             
     e( 22 - 22) =     11.99320  eV     1   --> A''            
     e( 23 - 23) =     12.00159  eV     1   --> A'             
     e( 24 - 24) =     12.13579  eV     1   --> A''            
     e( 25 - 25) =     14.26147  eV     1   --> A'             
     e( 26 - 26) =     16.73201  eV     1   --> A'             
     e( 27 - 27) =     18.18903  eV     1   --> A''            
     e( 28 - 28) =     18.21424  eV     1   --> A'             
     e( 29 - 29) =     19.34824  eV     1   --> A'             
     e( 30 - 30) =     20.72181  eV     1   --> A'             
     e( 31 - 31) =     24.28037  eV     1   --> A'             
     e( 32 - 32) =     24.65227  eV     1   --> A''            
     e( 33 - 33) =     24.67249  eV     1   --> A'             
     e( 34 - 34) =     26.36257  eV     1   --> A'             
     e( 35 - 35) =     29.19352  eV     1   --> A''            
     e( 36 - 36) =     29.61890  eV     1   --> A'             
     e( 37 - 37) =     29.62788  eV     1   --> A''            
     e( 38 - 38) =     30.11899  eV     1   --> A'             
     e( 39 - 39) =     31.59021  eV     1   --> A''            
     e( 40 - 40) =     31.61703  eV     1   --> A'             

 **************************************************************************

 **************************************************************************

                    xk=(   0.16667,   0.00000,   0.00000  )

     Band symmetry, C_s (m)     point group:

     e(  1 -  1) =     -4.23302  eV     1   --> A'             
     e(  2 -  2) =      5.87922  eV     1   --> A'             
     e(  3 -  3) =      7.21949  eV     1   --> A'             
     e(  4 -  4) =      7.58910  eV     1   --> A''            
     e(  5 -  5) =      7.66628  eV     1   --> A'             
     e(  6 -  6) =      8.76822  eV     1   --> A''            
     e(  7 -  7) =      8.78013  eV     1   --> A'             
     e(  8 -  8) =      8.86200  eV     1   --> A'             
     e(  9 -  9) =      9.03055  eV     1   --> A'             
     e( 10 - 10) =      9.03947  eV     1   --> A''            
     e( 11 - 11) =     10.15768  eV     1   --> A''            
     e( 12 - 12) =     10.31075  eV     1   --> A'             
     e( 13 - 13) =     10.32370  eV     1   --> A''            
     e( 14 - 14) =     10.39937  eV     1   --> A'             
     e( 15 - 15) =     10.64128  eV     1   --> A'             
     e( 16 - 16) =     11.23923  eV     1   --> A''            
     e( 17 - 17) =     11.29766  eV     1   --> A'             
     e( 18 - 18) =     11.36868  eV     1   --> A'             
     e( 19 - 19) =     11.38560  eV     1   --> A''            
     e( 20 - 20) =     11.80606  eV     1   --> A'             
     e( 21 - 21) =     11.83477  eV     1   --> A'             
     e( 22 - 22) =     11.96580  eV     1   --> A''            
     e( 23 - 23) =     11.97401  eV     1   --> A'             
     e( 24 - 24) =     12.13560  eV     1   --> A''            
     e( 25 - 25) =     14.30791  eV     1   --> A'             
     e( 26 - 26) =     16.57504  eV     1   --> A'             
     e( 27 - 27) =     18.23017  eV     1   --> A''            
     e( 28 - 28) =     18.25476  eV     1   --> A'             
     e( 29 - 29) =     19.37146  eV     1   --> A'             
     e( 30 - 30) =     20.94112  eV     1   --> A'             
     e( 31 - 31) =     24.08745  eV     1   --> A'             
     e( 32 - 32) =     24.52418  eV     1   --> A''            
     e( 33 - 33) =     24.54105  eV     1   --> A'             
     e( 34 - 34) =     26.52024  eV     1   --> A'             
     e( 35 - 35) =     29.21758  eV     1   --> A''            
     e( 36 - 36) =     29.65686  eV     1   --> A'             
     e( 37 - 37) =     29.66175  eV     1   --> A''            
     e( 38 - 38) =     29.97647  eV     1   --> A'             
     e( 39 - 39) =     31.71796  eV     1   --> A''            
     e( 40 - 40) =     31.74509  eV     1   --> A'             

 **************************************************************************

 **************************************************************************

                    xk=(   0.18333,   0.00000,   0.00000  )

     Band symmetry, C_s (m)     point group:

     e(  1 -  1) =     -4.21008  eV     1   --> A'             
     e(  2 -  2) =      5.85155  eV     1   --> A'             
     e(  3 -  3) =      7.15745  eV     1   --> A'             
     e(  4 -  4) =      7.54798  eV     1   --> A''            
     e(  5 -  5) =      7.62142  eV     1   --> A'             
     e(  6 -  6) =      8.78234  eV     1   --> A''            
     e(  7 -  7) =      8.78701  eV     1   --> A'             
     e(  8 -  8) =      8.89218  eV     1   --> A'             
     e(  9 -  9) =      9.06756  eV     1   --> A'             
     e( 10 - 10) =      9.07640  eV     1   --> A''            
     e( 11 - 11) =     10.14329  eV     1   --> A''            
     e( 12 - 12) =     10.32468  eV     1   --> A'             
     e( 13 - 13) =     10.33920  eV     1   --> A''            
     e( 14 - 14) =     10.40080  eV     1   --> A'             
     e( 15 - 15) =     10.65147  eV     1   --> A'             
     e( 16 - 16) =     11.23787  eV     1   --> A''            
     e( 17 - 17) =     11.28275  eV     1   --> A'             
     e( 18 - 18) =     11.38393  eV     1   --> A'             
     e( 19 - 19) =     11.40303  eV     1   --> A''            
     e( 20 - 20) =     11.80040  eV     1   --> A'             
     e( 21 - 21) =     11.83155  eV     1   --> A'             
     e( 22 - 22) =     11.93723  eV     1   --> A''            
     e( 23 - 23) =     11.94517  eV     1   --> A'             
     e( 24 - 24) =     12.13544  eV     1   --> A''            
     e( 25 - 25) =     14.35534  eV     1   --> A'             
     e( 26 - 26) =     16.42593  eV     1   --> A'             
     e( 27 - 27) =     18.27372  eV     1   --> A''            
     e( 28 - 28) =     18.29762  eV     1   --> A'             
     e( 29 - 29) =     19.39745  eV     1   --> A'             
     e( 30 - 30) =     21.16372  eV     1   --> A'             
     e( 31 - 31) =     23.89129  eV     1   --> A'             
     e( 32 - 32) =     24.39576  eV     1   --> A''            
     e( 33 - 33) =     24.40953  eV     1   --> A'             
     e( 34 - 34) =     26.68987  eV     1   --> A'             
     e( 35 - 35) =     29.24434  eV     1   --> A''            
     e( 36 - 36) =     29.66988  eV     1   --> A'             
     e( 37 - 37) =     29.68046  eV     1   --> A''            
     e( 38 - 38) =     29.84075  eV     1   --> A'             
     e( 39 - 39) =     31.86712  eV     1   --> A''            
     e( 40 - 40) =     31.89305  eV     1   --> A'             

 **************************************************************************

 **************************************************************************

                    xk=(   0.20000,   0.00000,   0.00000  )

     Band symmetry, C_s (m)     point group:

     e(  1 -  1) =     -4.18583  eV     1   --> A'             
     e(  2 -  2) =      5.81108  eV     1   --> A'             
     e(  3 -  3) =      7.11151  eV     1   --> A'             
     e(  4 -  4) =      7.50712  eV     1   --> A''            
     e(  5 -  5) =      7.57736  eV     1   --> A'             
     e(  6 -  6) =      8.79223  eV     1   --> A'             
     e(  7 -  7) =      8.79739  eV     1   --> A''            
     e(  8 -  8) =      8.92457  eV     1   --> A'             
     e(  9 -  9) =      9.10395  eV     1   --> A'             
     e( 10 - 10) =      9.11227  eV     1   --> A''            
     e( 11 - 11) =     10.12795  eV     1   --> A''            
     e( 12 - 12) =     10.33882  eV     1   --> A'             
     e( 13 - 13) =     10.35550  eV     1   --> A''            
     e( 14 - 14) =     10.40264  eV     1   --> A'             
     e( 15 - 15) =     10.65485  eV     1   --> A'             
     e( 16 - 16) =     11.23656  eV     1   --> A''            
     e( 17 - 17) =     11.26466  eV     1   --> A'             
     e( 18 - 18) =     11.40183  eV     1   --> A'             
     e( 19 - 19) =     11.42087  eV     1   --> A''            
     e( 20 - 20) =     11.79432  eV     1   --> A'             
     e( 21 - 21) =     11.82677  eV     1   --> A'             
     e( 22 - 22) =     11.90793  eV     1   --> A''            
     e( 23 - 23) =     11.91552  eV     1   --> A'             
     e( 24 - 24) =     12.13523  eV     1   --> A''            
     e( 25 - 25) =     14.40241  eV     1   --> A'             
     e( 26 - 26) =     16.28598  eV     1   --> A'             
     e( 27 - 27) =     18.31894  eV     1   --> A''            
     e( 28 - 28) =     18.34214  eV     1   --> A'             
     e( 29 - 29) =     19.42620  eV     1   --> A'             
     e( 30 - 30) =     21.38927  eV     1   --> A'             
     e( 31 - 31) =     23.69364  eV     1   --> A'             
     e( 32 - 32) =     24.26807  eV     1   --> A''            
     e( 33 - 33) =     24.27917  eV     1   --> A'             
     e( 34 - 34) =     26.86990  eV     1   --> A'             
     e( 35 - 35) =     29.27268  eV     1   --> A''            
     e( 36 - 36) =     29.61934  eV     1   --> A'             
     e( 37 - 37) =     29.68338  eV     1   --> A''            
     e( 38 - 38) =     29.75014  eV     1   --> A'             
     e( 39 - 39) =     32.03409  eV     1   --> A''            
     e( 40 - 40) =     32.05830  eV     1   --> A'             

 **************************************************************************

 **************************************************************************

                    xk=(   0.21667,   0.00000,   0.00000  )

     Band symmetry, C_s (m)     point group:

     e(  1 -  1) =     -4.16045  eV     1   --> A'             
     e(  2 -  2) =      5.75729  eV     1   --> A'             
     e(  3 -  3) =      7.08369  eV     1   --> A'             
     e(  4 -  4) =      7.46717  eV     1   --> A''            
     e(  5 -  5) =      7.53470  eV     1   --> A'             
     e(  6 -  6) =      8.79554  eV     1   --> A'             
     e(  7 -  7) =      8.81335  eV     1   --> A''            
     e(  8 -  8) =      8.95900  eV     1   --> A'             
     e(  9 -  9) =      9.13950  eV     1   --> A'             
     e( 10 - 10) =      9.14694  eV     1   --> A''            
     e( 11 - 11) =     10.11189  eV     1   --> A''            
     e( 12 - 12) =     10.35279  eV     1   --> A'             
     e( 13 - 13) =     10.37277  eV     1   --> A''            
     e( 14 - 14) =     10.40539  eV     1   --> A'             
     e( 15 - 15) =     10.65183  eV     1   --> A'             
     e( 16 - 16) =     11.23531  eV     1   --> A''            
     e( 17 - 17) =     11.24433  eV     1   --> A'             
     e( 18 - 18) =     11.42107  eV     1   --> A'             
     e( 19 - 19) =     11.43868  eV     1   --> A''            
     e( 20 - 20) =     11.78776  eV     1   --> A'             
     e( 21 - 21) =     11.82043  eV     1   --> A'             
     e( 22 - 22) =     11.87863  eV     1   --> A''            
     e( 23 - 23) =     11.88582  eV     1   --> A'             
     e( 24 - 24) =     12.13501  eV     1   --> A''            
     e( 25 - 25) =     14.44775  eV     1   --> A'             
     e( 26 - 26) =     16.15668  eV     1   --> A'             
     e( 27 - 27) =     18.36545  eV     1   --> A''            
     e( 28 - 28) =     18.38794  eV     1   --> A'             
     e( 29 - 29) =     19.45779  eV     1   --> A'             
     e( 30 - 30) =     21.61759  eV     1   --> A'             
     e( 31 - 31) =     23.49609  eV     1   --> A'             
     e( 32 - 32) =     24.14267  eV     1   --> A''            
     e( 33 - 33) =     24.15147  eV     1   --> A'             
     e( 34 - 34) =     27.05857  eV     1   --> A'             
     e( 35 - 35) =     29.30275  eV     1   --> A''            
     e( 36 - 36) =     29.49271  eV     1   --> A'             
     e( 37 - 37) =     29.67363  eV     1   --> A''            
     e( 38 - 38) =     29.72092  eV     1   --> A'             
     e( 39 - 39) =     32.21733  eV     1   --> A''            
     e( 40 - 40) =     32.23936  eV     1   --> A'             

 **************************************************************************

 **************************************************************************

                    xk=(   0.23333,   0.00000,   0.00000  )

     Band symmetry, C_s (m)     point group:

     e(  1 -  1) =     -4.13420  eV     1   --> A'             
     e(  2 -  2) =      5.69101  eV     1   --> A'             
     e(  3 -  3) =      7.07408  eV     1   --> A'             
     e(  4 -  4) =      7.42830  eV     1   --> A''            
     e(  5 -  5) =      7.49359  eV     1   --> A'             
     e(  6 -  6) =      8.79656  eV     1   --> A'             
     e(  7 -  7) =      8.83008  eV     1   --> A''            
     e(  8 -  8) =      8.99523  eV     1   --> A'             
     e(  9 -  9) =      9.17384  eV     1   --> A'             
     e( 10 - 10) =      9.18008  eV     1   --> A''            
     e( 11 - 11) =     10.09506  eV     1   --> A''            
     e( 12 - 12) =     10.36517  eV     1   --> A'             
     e( 13 - 13) =     10.39055  eV     1   --> A''            
     e( 14 - 14) =     10.40994  eV     1   --> A'             
     e( 15 - 15) =     10.64283  eV     1   --> A'             
     e( 16 - 16) =     11.22221  eV     1   --> A'             
     e( 17 - 17) =     11.23406  eV     1   --> A''            
     e( 18 - 18) =     11.44053  eV     1   --> A'             
     e( 19 - 19) =     11.45577  eV     1   --> A''            
     e( 20 - 20) =     11.78040  eV     1   --> A'             
     e( 21 - 21) =     11.81264  eV     1   --> A'             
     e( 22 - 22) =     11.85017  eV     1   --> A''            
     e( 23 - 23) =     11.85693  eV     1   --> A'             
     e( 24 - 24) =     12.13478  eV     1   --> A''            
     e( 25 - 25) =     14.48978  eV     1   --> A'             
     e( 26 - 26) =     16.03911  eV     1   --> A'             
     e( 27 - 27) =     18.41263  eV     1   --> A''            
     e( 28 - 28) =     18.43438  eV     1   --> A'             
     e( 29 - 29) =     19.49232  eV     1   --> A'             
     e( 30 - 30) =     21.84843  eV     1   --> A'             
     e( 31 - 31) =     23.29997  eV     1   --> A'             
     e( 32 - 32) =     24.02060  eV     1   --> A''            
     e( 33 - 33) =     24.02751  eV     1   --> A'             
     e( 34 - 34) =     27.25334  eV     1   --> A'             
     e( 35 - 35) =     29.33356  eV     1   --> A''            
     e( 36 - 36) =     29.34845  eV     1   --> A'             
     e( 37 - 37) =     29.65398  eV     1   --> A''            
     e( 38 - 38) =     29.69836  eV     1   --> A'             
     e( 39 - 39) =     32.41228  eV     1   --> A''            
     e( 40 - 40) =     32.43181  eV     1   --> A'             

 **************************************************************************

 **************************************************************************

                    xk=(   0.25000,   0.00000,   0.00000  )

     Band symmetry, C_s (m)     point group:

     e(  1 -  1) =     -4.10741  eV     1   --> A'             
     e(  2 -  2) =      5.61432  eV     1   --> A'             
     e(  3 -  3) =      7.08128  eV     1   --> A'             
     e(  4 -  4) =      7.39081  eV     1   --> A''            
     e(  5 -  5) =      7.45432  eV     1   --> A'             
     e(  6 -  6) =      8.79452  eV     1   --> A'             
     e(  7 -  7) =      8.84750  eV     1   --> A''            
     e(  8 -  8) =      9.03300  eV     1   --> A'             
     e(  9 -  9) =      9.20675  eV     1   --> A'             
     e( 10 - 10) =      9.21147  eV     1   --> A''            
     e( 11 - 11) =     10.07769  eV     1   --> A''            
     e( 12 - 12) =     10.37445  eV     1   --> A'             
     e( 13 - 13) =     10.40882  eV     1   --> A''            
     e( 14 - 14) =     10.41770  eV     1   --> A'             
     e( 15 - 15) =     10.62852  eV     1   --> A'             
     e( 16 - 16) =     11.19859  eV     1   --> A'             
     e( 17 - 17) =     11.23278  eV     1   --> A''            
     e( 18 - 18) =     11.45910  eV     1   --> A'             
     e( 19 - 19) =     11.47120  eV     1   --> A''            
     e( 20 - 20) =     11.77153  eV     1   --> A'             
     e( 21 - 21) =     11.80393  eV     1   --> A'             
     e( 22 - 22) =     11.82359  eV     1   --> A''            
     e( 23 - 23) =     11.83001  eV     1   --> A'             
     e( 24 - 24) =     12.13455  eV     1   --> A''            
     e( 25 - 25) =     14.52690  eV     1   --> A'             
     e( 26 - 26) =     15.93424  eV     1   --> A'             
     e( 27 - 27) =     18.45994  eV     1   --> A''            
     e( 28 - 28) =     18.48096  eV     1   --> A'             
     e( 29 - 29) =     19.52986  eV     1   --> A'             
     e( 30 - 30) =     22.08111  eV     1   --> A'             
     e( 31 - 31) =     23.10637  eV     1   --> A'             
     e( 32 - 32) =     23.90285  eV     1   --> A''            
     e( 33 - 33) =     23.90826  eV     1   --> A'             
     e( 34 - 34) =     27.45059  eV     1   --> A'             
     e( 35 - 35) =     29.20406  eV     1   --> A'             
     e( 36 - 36) =     29.36362  eV     1   --> A''            
     e( 37 - 37) =     29.62822  eV     1   --> A''            
     e( 38 - 38) =     29.67024  eV     1   --> A'             
     e( 39 - 39) =     32.61589  eV     1   --> A''            
     e( 40 - 40) =     32.63184  eV     1   --> A'             

 **************************************************************************

 **************************************************************************

                    xk=(   0.26667,   0.00000,   0.00000  )

     Band symmetry, C_s (m)     point group:

     e(  1 -  1) =     -4.08021  eV     1   --> A'             
     e(  2 -  2) =      5.53007  eV     1   --> A'             
     e(  3 -  3) =      7.10377  eV     1   --> A'             
     e(  4 -  4) =      7.35492  eV     1   --> A''            
     e(  5 -  5) =      7.41717  eV     1   --> A'             
     e(  6 -  6) =      8.78970  eV     1   --> A'             
     e(  7 -  7) =      8.86549  eV     1   --> A''            
     e(  8 -  8) =      9.07204  eV     1   --> A'             
     e(  9 -  9) =      9.23802  eV     1   --> A'             
     e( 10 - 10) =      9.24093  eV     1   --> A''            
     e( 11 - 11) =     10.05996  eV     1   --> A''            
     e( 12 - 12) =     10.37978  eV     1   --> A'             
     e( 13 - 13) =     10.42745  eV     1   --> A''            
     e( 14 - 14) =     10.42928  eV     1   --> A'             
     e( 15 - 15) =     10.60973  eV     1   --> A'             
     e( 16 - 16) =     11.17375  eV     1   --> A'             
     e( 17 - 17) =     11.23143  eV     1   --> A''            
     e( 18 - 18) =     11.47547  eV     1   --> A'             
     e( 19 - 19) =     11.48374  eV     1   --> A''            
     e( 20 - 20) =     11.76029  eV     1   --> A'             
     e( 21 - 21) =     11.79520  eV     1   --> A'             
     e( 22 - 22) =     11.80026  eV     1   --> A''            
     e( 23 - 23) =     11.80653  eV     1   --> A'             
     e( 24 - 24) =     12.13432  eV     1   --> A''            
     e( 25 - 25) =     14.55782  eV     1   --> A'             
     e( 26 - 26) =     15.84363  eV     1   --> A'             
     e( 27 - 27) =     18.50684  eV     1   --> A''            
     e( 28 - 28) =     18.52711  eV     1   --> A'             
     e( 29 - 29) =     19.57049  eV     1   --> A'             
     e( 30 - 30) =     22.31589  eV     1   --> A'             
     e( 31 - 31) =     22.91625  eV     1   --> A'             
     e( 32 - 32) =     23.79025  eV     1   --> A''            
     e( 33 - 33) =     23.79456  eV     1   --> A'             
     e( 34 - 34) =     27.64424  eV     1   --> A'             
     e( 35 - 35) =     29.06728  eV     1   --> A'             
     e( 36 - 36) =     29.38933  eV     1   --> A''            
     e( 37 - 37) =     29.60205  eV     1   --> A''            
     e( 38 - 38) =     29.63669  eV     1   --> A'             
     e( 39 - 39) =     32.66281  eV     1   --> A''            
     e( 40 - 40) =     32.82487  eV     1   --> A''            

 **************************************************************************

 **************************************************************************

                    xk=(   0.28333,   0.00000,   0.00000  )

     Band symmetry, C_s (m)     point group:

     e(  1 -  1) =     -4.05305  eV     1   --> A'             
     e(  2 -  2) =      5.44105  eV     1   --> A'             
     e(  3 -  3) =      7.13881  eV     1   --> A'             
     e(  4 -  4) =      7.32049  eV     1   --> A''            
     e(  5 -  5) =      7.38221  eV     1   --> A'             
     e(  6 -  6) =      8.78114  eV     1   --> A'             
     e(  7 -  7) =      8.88386  eV     1   --> A''            
     e(  8 -  8) =      9.11190  eV     1   --> A'             
     e(  9 -  9) =      9.26735  eV     1   --> A'             
     e( 10 - 10) =      9.26815  eV     1   --> A''            
     e( 11 - 11) =     10.04204  eV     1   --> A''            
     e( 12 - 12) =     10.38188  eV     1   --> A'             
     e( 13 - 13) =     10.44368  eV     1   --> A'             
     e( 14 - 14) =     10.44628  eV     1   --> A''            
     e( 15 - 15) =     10.58739  eV     1   --> A'             
     e( 16 - 16) =     11.14794  eV     1   --> A'             
     e( 17 - 17) =     11.22996  eV     1   --> A''            
     e( 18 - 18) =     11.48795  eV     1   --> A'             
     e( 19 - 19) =     11.49186  eV     1   --> A''            
     e( 20 - 20) =     11.74695  eV     1   --> A'             
     e( 21 - 21) =     11.78177  eV     1   --> A''            
     e( 22 - 22) =     11.78293  eV     1   --> A'             
     e( 23 - 23) =     11.79150  eV     1   --> A'             
     e( 24 - 24) =     12.13410  eV     1   --> A''            
     e( 25 - 25) =     14.58121  eV     1   --> A'             
     e( 26 - 26) =     15.76762  eV     1   --> A'             
     e( 27 - 27) =     18.55261  eV     1   --> A''            
     e( 28 - 28) =     18.57215  eV     1   --> A'             
     e( 29 - 29) =     19.61422  eV     1   --> A'             
     e( 30 - 30) =     22.55137  eV     1   --> A'             
     e( 31 - 31) =     22.73087  eV     1   --> A'             
     e( 32 - 32) =     23.68320  eV     1   --> A''            
     e( 33 - 33) =     23.68681  eV     1   --> A'             
     e( 34 - 34) =     27.82227  eV     1   --> A'             
     e( 35 - 35) =     28.94948  eV     1   --> A'             
     e( 36 - 36) =     29.40289  eV     1   --> A''            
     e( 37 - 37) =     29.58501  eV     1   --> A''            
     e( 38 - 38) =     29.59966  eV     1   --> A'             
     e( 39 - 39) =     32.51116  eV     1   --> A''            
     e( 40 - 40) =     33.03189  eV     1   --> A'             

 **************************************************************************

 **************************************************************************

                    xk=(   0.30000,   0.00000,   0.00000  )

     Band symmetry, C_s (m)     point group:

     e(  1 -  1) =     -4.02607  eV     1   --> A'             
     e(  2 -  2) =      5.35027  eV     1   --> A'             
     e(  3 -  3) =      7.18348  eV     1   --> A'             
     e(  4 -  4) =      7.28823  eV     1   --> A''            
     e(  5 -  5) =      7.35081  eV     1   --> A'             
     e(  6 -  6) =      8.76842  eV     1   --> A'             
     e(  7 -  7) =      8.90253  eV     1   --> A''            
     e(  8 -  8) =      9.15247  eV     1   --> A'             
     e(  9 -  9) =      9.29335  eV     1   --> A''            
     e( 10 - 10) =      9.29495  eV     1   --> A'             
     e( 11 - 11) =     10.02414  eV     1   --> A''            
     e( 12 - 12) =     10.38179  eV     1   --> A'             
     e( 13 - 13) =     10.45941  eV     1   --> A'             
     e( 14 - 14) =     10.46514  eV     1   --> A''            
     e( 15 - 15) =     10.56262  eV     1   --> A'             
     e( 16 - 16) =     11.12147  eV     1   --> A'             
     e( 17 - 17) =     11.22832  eV     1   --> A''            
     e( 18 - 18) =     11.49414  eV     1   --> A''            
     e( 19 - 19) =     11.49474  eV     1   --> A'             
     e( 20 - 20) =     11.73397  eV     1   --> A'             
     e( 21 - 21) =     11.76518  eV     1   --> A'             
     e( 22 - 22) =     11.76958  eV     1   --> A''            
     e( 23 - 23) =     11.78650  eV     1   --> A'             
     e( 24 - 24) =     12.13388  eV     1   --> A''            
     e( 25 - 25) =     14.59627  eV     1   --> A'             
     e( 26 - 26) =     15.70678  eV     1   --> A'             
     e( 27 - 27) =     18.59704  eV     1   --> A''            
     e( 28 - 28) =     18.61582  eV     1   --> A'             
     e( 29 - 29) =     19.66126  eV     1   --> A'             
     e( 30 - 30) =     22.54793  eV     1   --> A'             
     e( 31 - 31) =     22.78997  eV     1   --> A'             
     e( 32 - 32) =     23.58289  eV     1   --> A''            
     e( 33 - 33) =     23.58634  eV     1   --> A'             
     e( 34 - 34) =     27.96068  eV     1   --> A'             
     e( 35 - 35) =     28.87318  eV     1   --> A'             
     e( 36 - 36) =     29.39454  eV     1   --> A''            
     e( 37 - 37) =     29.56207  eV     1   --> A'             
     e( 38 - 38) =     29.58828  eV     1   --> A''            
     e( 39 - 39) =     32.36473  eV     1   --> A''            
     e( 40 - 40) =     33.22122  eV     1   --> A'             

 **************************************************************************

 **************************************************************************

                    xk=(   0.31667,   0.00000,   0.00000  )

     Band symmetry, C_s (m)     point group:

     e(  1 -  1) =     -3.99952  eV     1   --> A'             
     e(  2 -  2) =      5.25977  eV     1   --> A'             
     e(  3 -  3) =      7.23250  eV     1   --> A'             
     e(  4 -  4) =      7.25822  eV     1   --> A''            
     e(  5 -  5) =      7.32650  eV     1   --> A'             
     e(  6 -  6) =      8.75131  eV     1   --> A'             
     e(  7 -  7) =      8.92129  eV     1   --> A''            
     e(  8 -  8) =      9.19321  eV     1   --> A'             
     e(  9 -  9) =      9.31624  eV     1   --> A''            
     e( 10 - 10) =      9.32056  eV     1   --> A'             
     e( 11 - 11) =     10.00646  eV     1   --> A''            
     e( 12 - 12) =     10.38016  eV     1   --> A'             
     e( 13 - 13) =     10.47517  eV     1   --> A'             
     e( 14 - 14) =     10.48402  eV     1   --> A''            
     e( 15 - 15) =     10.53705  eV     1   --> A'             
     e( 16 - 16) =     11.09458  eV     1   --> A'             
     e( 17 - 17) =     11.22645  eV     1   --> A''            
     e( 18 - 18) =     11.48992  eV     1   --> A''            
     e( 19 - 19) =     11.49449  eV     1   --> A'             
     e( 20 - 20) =     11.72418  eV     1   --> A'             
     e( 21 - 21) =     11.74749  eV     1   --> A'             
     e( 22 - 22) =     11.76454  eV     1   --> A''            
     e( 23 - 23) =     11.78499  eV     1   --> A'             
     e( 24 - 24) =     12.13366  eV     1   --> A''            
     e( 25 - 25) =     14.60290  eV     1   --> A'             
     e( 26 - 26) =     15.66067  eV     1   --> A'             
     e( 27 - 27) =     18.63952  eV     1   --> A''            
     e( 28 - 28) =     18.65752  eV     1   --> A'             
     e( 29 - 29) =     19.71150  eV     1   --> A'             
     e( 30 - 30) =     22.37271  eV     1   --> A'             
     e( 31 - 31) =     23.02671  eV     1   --> A'             
     e( 32 - 32) =     23.48951  eV     1   --> A''            
     e( 33 - 33) =     23.49382  eV     1   --> A'             
     e( 34 - 34) =     28.02146  eV     1   --> A'             
     e( 35 - 35) =     28.87254  eV     1   --> A'             
     e( 36 - 36) =     29.36588  eV     1   --> A''            
     e( 37 - 37) =     29.52919  eV     1   --> A'             
     e( 38 - 38) =     29.61245  eV     1   --> A''            
     e( 39 - 39) =     32.22403  eV     1   --> A''            
     e( 40 - 40) =     33.39897  eV     1   --> A'             

 **************************************************************************

 **************************************************************************

                    xk=(   0.33333,   0.00000,   0.00000  )

     Band symmetry, C_s (m)     point group:

     e(  1 -  1) =     -3.97402  eV     1   --> A'             
     e(  2 -  2) =      5.17206  eV     1   --> A'             
     e(  3 -  3) =      7.23045  eV     1   --> A''            
     e(  4 -  4) =      7.26100  eV     1   --> A'             
     e(  5 -  5) =      7.33246  eV     1   --> A'             
     e(  6 -  6) =      8.72859  eV     1   --> A'             
     e(  7 -  7) =      8.93991  eV     1   --> A''            
     e(  8 -  8) =      9.23375  eV     1   --> A'             
     e(  9 -  9) =      9.33681  eV     1   --> A''            
     e( 10 - 10) =      9.34414  eV     1   --> A'             
     e( 11 - 11) =      9.98923  eV     1   --> A''            
     e( 12 - 12) =     10.37722  eV     1   --> A'             
     e( 13 - 13) =     10.48638  eV     1   --> A'             
     e( 14 - 14) =     10.50268  eV     1   --> A''            
     e( 15 - 15) =     10.51561  eV     1   --> A'             
     e( 16 - 16) =     11.06779  eV     1   --> A'             
     e( 17 - 17) =     11.22428  eV     1   --> A''            
     e( 18 - 18) =     11.47947  eV     1   --> A''            
     e( 19 - 19) =     11.48680  eV     1   --> A'             
     e( 20 - 20) =     11.71853  eV     1   --> A'             
     e( 21 - 21) =     11.73007  eV     1   --> A'             
     e( 22 - 22) =     11.76631  eV     1   --> A''            
     e( 23 - 23) =     11.78654  eV     1   --> A'             
     e( 24 - 24) =     12.13346  eV     1   --> A''            
     e( 25 - 25) =     14.60167  eV     1   --> A'             
     e( 26 - 26) =     15.62791  eV     1   --> A'             
     e( 27 - 27) =     18.67966  eV     1   --> A''            
     e( 28 - 28) =     18.69687  eV     1   --> A'             
     e( 29 - 29) =     19.76507  eV     1   --> A'             
     e( 30 - 30) =     22.20317  eV     1   --> A'             
     e( 31 - 31) =     23.25643  eV     1   --> A'             
     e( 32 - 32) =     23.40353  eV     1   --> A''            
     e( 33 - 33) =     23.41429  eV     1   --> A'             
     e( 34 - 34) =     27.98901  eV     1   --> A'             
     e( 35 - 35) =     28.95606  eV     1   --> A'             
     e( 36 - 36) =     29.32594  eV     1   --> A''            
     e( 37 - 37) =     29.50990  eV     1   --> A'             
     e( 38 - 38) =     29.64876  eV     1   --> A''            
     e( 39 - 39) =     32.08954  eV     1   --> A''            
     e( 40 - 40) =     33.56551  eV     1   --> A'             

 **************************************************************************

 **************************************************************************

                    xk=(   0.35000,   0.00000,   0.00000  )

     Band symmetry, C_s (m)     point group:

     e(  1 -  1) =     -3.94973  eV     1   --> A'             
     e(  2 -  2) =      5.08858  eV     1   --> A'             
     e(  3 -  3) =      7.20502  eV     1   --> A''            
     e(  4 -  4) =      7.24894  eV     1   --> A'             
     e(  5 -  5) =      7.38742  eV     1   --> A'             
     e(  6 -  6) =      8.70019  eV     1   --> A'             
     e(  7 -  7) =      8.95818  eV     1   --> A''            
     e(  8 -  8) =      9.27354  eV     1   --> A'             
     e(  9 -  9) =      9.35501  eV     1   --> A''            
     e( 10 - 10) =      9.36561  eV     1   --> A'             
     e( 11 - 11) =      9.97270  eV     1   --> A''            
     e( 12 - 12) =     10.37295  eV     1   --> A'             
     e( 13 - 13) =     10.47444  eV     1   --> A'             
     e( 14 - 14) =     10.51771  eV     1   --> A'             
     e( 15 - 15) =     10.52095  eV     1   --> A''            
     e( 16 - 16) =     11.04143  eV     1   --> A'             
     e( 17 - 17) =     11.22176  eV     1   --> A''            
     e( 18 - 18) =     11.46444  eV     1   --> A''            
     e( 19 - 19) =     11.47303  eV     1   --> A'             
     e( 20 - 20) =     11.71291  eV     1   --> A'             
     e( 21 - 21) =     11.71605  eV     1   --> A'             
     e( 22 - 22) =     11.77337  eV     1   --> A''            
     e( 23 - 23) =     11.79122  eV     1   --> A'             
     e( 24 - 24) =     12.13328  eV     1   --> A''            
     e( 25 - 25) =     14.59399  eV     1   --> A'             
     e( 26 - 26) =     15.60677  eV     1   --> A'             
     e( 27 - 27) =     18.71701  eV     1   --> A''            
     e( 28 - 28) =     18.73341  eV     1   --> A'             
     e( 29 - 29) =     19.82182  eV     1   --> A'             
     e( 30 - 30) =     22.04019  eV     1   --> A'             
     e( 31 - 31) =     23.31807  eV     1   --> A'             
     e( 32 - 32) =     23.32525  eV     1   --> A''            
     e( 33 - 33) =     23.50862  eV     1   --> A'             
     e( 34 - 34) =     27.89067  eV     1   --> A'             
     e( 35 - 35) =     29.07427  eV     1   --> A'             
     e( 36 - 36) =     29.28183  eV     1   --> A''            
     e( 37 - 37) =     29.52728  eV     1   --> A'             
     e( 38 - 38) =     29.69127  eV     1   --> A''            
     e( 39 - 39) =     31.96184  eV     1   --> A''            
     e( 40 - 40) =     33.71914  eV     1   --> A'             

 **************************************************************************

 **************************************************************************

                    xk=(   0.36667,   0.00000,   0.00000  )

     Band symmetry, C_s (m)     point group:

     e(  1 -  1) =     -3.92696  eV     1   --> A'             
     e(  2 -  2) =      5.01070  eV     1   --> A'             
     e(  3 -  3) =      7.18204  eV     1   --> A''            
     e(  4 -  4) =      7.22875  eV     1   --> A'             
     e(  5 -  5) =      7.45778  eV     1   --> A'             
     e(  6 -  6) =      8.66583  eV     1   --> A'             
     e(  7 -  7) =      8.97582  eV     1   --> A''            
     e(  8 -  8) =      9.31203  eV     1   --> A'             
     e(  9 -  9) =      9.37083  eV     1   --> A''            
     e( 10 - 10) =      9.38494  eV     1   --> A'             
     e( 11 - 11) =      9.95710  eV     1   --> A''            
     e( 12 - 12) =     10.36721  eV     1   --> A'             
     e( 13 - 13) =     10.45147  eV     1   --> A'             
     e( 14 - 14) =     10.53207  eV     1   --> A'             
     e( 15 - 15) =     10.53861  eV     1   --> A''            
     e( 16 - 16) =     11.01593  eV     1   --> A'             
     e( 17 - 17) =     11.21880  eV     1   --> A''            
     e( 18 - 18) =     11.44677  eV     1   --> A''            
     e( 19 - 19) =     11.45529  eV     1   --> A'             
     e( 20 - 20) =     11.69632  eV     1   --> A'             
     e( 21 - 21) =     11.71505  eV     1   --> A'             
     e( 22 - 22) =     11.78385  eV     1   --> A''            
     e( 23 - 23) =     11.79882  eV     1   --> A'             
     e( 24 - 24) =     12.13310  eV     1   --> A''            
     e( 25 - 25) =     14.58163  eV     1   --> A'             
     e( 26 - 26) =     15.59492  eV     1   --> A'             
     e( 27 - 27) =     18.75123  eV     1   --> A''            
     e( 28 - 28) =     18.76681  eV     1   --> A'             
     e( 29 - 29) =     19.88155  eV     1   --> A'             
     e( 30 - 30) =     21.88440  eV     1   --> A'             
     e( 31 - 31) =     23.25273  eV     1   --> A'             
     e( 32 - 32) =     23.25491  eV     1   --> A''            
     e( 33 - 33) =     23.73436  eV     1   --> A'             
     e( 34 - 34) =     27.75890  eV     1   --> A'             
     e( 35 - 35) =     29.15544  eV     1   --> A'             
     e( 36 - 36) =     29.23727  eV     1   --> A''            
     e( 37 - 37) =     29.62195  eV     1   --> A'             
     e( 38 - 38) =     29.73687  eV     1   --> A''            
     e( 39 - 39) =     31.84161  eV     1   --> A''            
     e( 40 - 40) =     33.84733  eV     1   --> A'             

 **************************************************************************

 **************************************************************************

                    xk=(   0.38333,   0.00000,   0.00000  )

     Band symmetry, C_s (m)     point group:

     e(  1 -  1) =     -3.90607  eV     1   --> A'             
     e(  2 -  2) =      4.93975  eV     1   --> A'             
     e(  3 -  3) =      7.16152  eV     1   --> A''            
     e(  4 -  4) =      7.20904  eV     1   --> A'             
     e(  5 -  5) =      7.53391  eV     1   --> A'             
     e(  6 -  6) =      8.62539  eV     1   --> A'             
     e(  7 -  7) =      8.99252  eV     1   --> A''            
     e(  8 -  8) =      9.34858  eV     1   --> A'             
     e(  9 -  9) =      9.38430  eV     1   --> A''            
     e( 10 - 10) =      9.40210  eV     1   --> A'             
     e( 11 - 11) =      9.94266  eV     1   --> A''            
     e( 12 - 12) =     10.35979  eV     1   --> A'             
     e( 13 - 13) =     10.42963  eV     1   --> A'             
     e( 14 - 14) =     10.54740  eV     1   --> A'             
     e( 15 - 15) =     10.55541  eV     1   --> A''            
     e( 16 - 16) =     10.99178  eV     1   --> A'             
     e( 17 - 17) =     11.21539  eV     1   --> A''            
     e( 18 - 18) =     11.42824  eV     1   --> A''            
     e( 19 - 19) =     11.43565  eV     1   --> A'             
     e( 20 - 20) =     11.68061  eV     1   --> A'             
     e( 21 - 21) =     11.71443  eV     1   --> A'             
     e( 22 - 22) =     11.79611  eV     1   --> A''            
     e( 23 - 23) =     11.80858  eV     1   --> A'             
     e( 24 - 24) =     12.13294  eV     1   --> A''            
     e( 25 - 25) =     14.56650  eV     1   --> A'             
     e( 26 - 26) =     15.59027  eV     1   --> A'             
     e( 27 - 27) =     18.78204  eV     1   --> A''            
     e( 28 - 28) =     18.79680  eV     1   --> A'             
     e( 29 - 29) =     19.94390  eV     1   --> A'             
     e( 30 - 30) =     21.73658  eV     1   --> A'             
     e( 31 - 31) =     23.19178  eV     1   --> A'             
     e( 32 - 32) =     23.19266  eV     1   --> A''            
     e( 33 - 33) =     23.95827  eV     1   --> A'             
     e( 34 - 34) =     27.61173  eV     1   --> A'             
     e( 35 - 35) =     29.17637  eV     1   --> A'             
     e( 36 - 36) =     29.19442  eV     1   --> A''            
     e( 37 - 37) =     29.78331  eV     1   --> A''            
     e( 38 - 38) =     29.80037  eV     1   --> A'             
     e( 39 - 39) =     31.72961  eV     1   --> A''            
     e( 40 - 40) =     33.91485  eV     1   --> A'             

 **************************************************************************

 **************************************************************************

                    xk=(   0.40000,   0.00000,   0.00000  )

     Band symmetry, C_s (m)     point group:

     e(  1 -  1) =     -3.88727  eV     1   --> A'             
     e(  2 -  2) =      4.87633  eV     1   --> A'             
     e(  3 -  3) =      7.14366  eV     1   --> A''            
     e(  4 -  4) =      7.19140  eV     1   --> A'             
     e(  5 -  5) =      7.61309  eV     1   --> A'             
     e(  6 -  6) =      8.57899  eV     1   --> A'             
     e(  7 -  7) =      9.00804  eV     1   --> A''            
     e(  8 -  8) =      9.38253  eV     1   --> A'             
     e(  9 -  9) =      9.39549  eV     1   --> A''            
     e( 10 - 10) =      9.41705  eV     1   --> A'             
     e( 11 - 11) =      9.92965  eV     1   --> A''            
     e( 12 - 12) =     10.35056  eV     1   --> A'             
     e( 13 - 13) =     10.41115  eV     1   --> A'             
     e( 14 - 14) =     10.56214  eV     1   --> A'             
     e( 15 - 15) =     10.57109  eV     1   --> A''            
     e( 16 - 16) =     10.96943  eV     1   --> A'             
     e( 17 - 17) =     11.21152  eV     1   --> A''            
     e( 18 - 18) =     11.41035  eV     1   --> A''            
     e( 19 - 19) =     11.41585  eV     1   --> A'             
     e( 20 - 20) =     11.66609  eV     1   --> A'             
     e( 21 - 21) =     11.71371  eV     1   --> A'             
     e( 22 - 22) =     11.80875  eV     1   --> A''            
     e( 23 - 23) =     11.81940  eV     1   --> A'             
     e( 24 - 24) =     12.13280  eV     1   --> A''            
     e( 25 - 25) =     14.55035  eV     1   --> A'             
     e( 26 - 26) =     15.59002  eV     1   --> A'             
     e( 27 - 27) =     18.80912  eV     1   --> A''            
     e( 28 - 28) =     18.82309  eV     1   --> A'             
     e( 29 - 29) =     20.00819  eV     1   --> A'             
     e( 30 - 30) =     21.59764  eV     1   --> A'             
     e( 31 - 31) =     23.13853  eV     1   --> A'             
     e( 32 - 32) =     23.13869  eV     1   --> A''            
     e( 33 - 33) =     24.17461  eV     1   --> A'             
     e( 34 - 34) =     27.45898  eV     1   --> A'             
     e( 35 - 35) =     29.15486  eV     1   --> A''            
     e( 36 - 36) =     29.16631  eV     1   --> A'             
     e( 37 - 37) =     29.82980  eV     1   --> A''            
     e( 38 - 38) =     30.02533  eV     1   --> A'             
     e( 39 - 39) =     31.62702  eV     1   --> A''            
     e( 40 - 40) =     33.86012  eV     1   --> A'             

 **************************************************************************

 **************************************************************************

                    xk=(   0.41667,   0.00000,   0.00000  )

     Band symmetry, C_s (m)     point group:

     e(  1 -  1) =     -3.87085  eV     1   --> A'             
     e(  2 -  2) =      4.82142  eV     1   --> A'             
     e(  3 -  3) =      7.12845  eV     1   --> A''            
     e(  4 -  4) =      7.17621  eV     1   --> A'             
     e(  5 -  5) =      7.69382  eV     1   --> A'             
     e(  6 -  6) =      8.52710  eV     1   --> A'             
     e(  7 -  7) =      9.02200  eV     1   --> A''            
     e(  8 -  8) =      9.40451  eV     1   --> A''            
     e(  9 -  9) =      9.41311  eV     1   --> A'             
     e( 10 - 10) =      9.42976  eV     1   --> A'             
     e( 11 - 11) =      9.91827  eV     1   --> A''            
     e( 12 - 12) =     10.33993  eV     1   --> A'             
     e( 13 - 13) =     10.39666  eV     1   --> A'             
     e( 14 - 14) =     10.57570  eV     1   --> A'             
     e( 15 - 15) =     10.58531  eV     1   --> A''            
     e( 16 - 16) =     10.94937  eV     1   --> A'             
     e( 17 - 17) =     11.20729  eV     1   --> A''            
     e( 18 - 18) =     11.39415  eV     1   --> A''            
     e( 19 - 19) =     11.39717  eV     1   --> A'             
     e( 20 - 20) =     11.65313  eV     1   --> A'             
     e( 21 - 21) =     11.71285  eV     1   --> A'             
     e( 22 - 22) =     11.82081  eV     1   --> A''            
     e( 23 - 23) =     11.83022  eV     1   --> A'             
     e( 24 - 24) =     12.13268  eV     1   --> A''            
     e( 25 - 25) =     14.53464  eV     1   --> A'             
     e( 26 - 26) =     15.59259  eV     1   --> A'             
     e( 27 - 27) =     18.83231  eV     1   --> A''            
     e( 28 - 28) =     18.84554  eV     1   --> A'             
     e( 29 - 29) =     20.07332  eV     1   --> A'             
     e( 30 - 30) =     21.46896  eV     1   --> A'             
     e( 31 - 31) =     23.09303  eV     1   --> A''            
     e( 32 - 32) =     23.09341  eV     1   --> A'             
     e( 33 - 33) =     24.37943  eV     1   --> A'             
     e( 34 - 34) =     27.30696  eV     1   --> A'             
     e( 35 - 35) =     29.11969  eV     1   --> A''            
     e( 36 - 36) =     29.14636  eV     1   --> A'             
     e( 37 - 37) =     29.87440  eV     1   --> A''            
     e( 38 - 38) =     30.27090  eV     1   --> A'             
     e( 39 - 39) =     31.53512  eV     1   --> A''            
     e( 40 - 40) =     33.67089  eV     1   --> A'             

 **************************************************************************

 **************************************************************************

                    xk=(   0.43333,   0.00000,   0.00000  )

     Band symmetry, C_s (m)     point group:

     e(  1 -  1) =     -3.85713  eV     1   --> A'             
     e(  2 -  2) =      4.77557  eV     1   --> A'             
     e(  3 -  3) =      7.11593  eV     1   --> A''            
     e(  4 -  4) =      7.16326  eV     1   --> A'             
     e(  5 -  5) =      7.77445  eV     1   --> A'             
     e(  6 -  6) =      8.47059  eV     1   --> A'             
     e(  7 -  7) =      9.03406  eV     1   --> A''            
     e(  8 -  8) =      9.41151  eV     1   --> A''            
     e(  9 -  9) =      9.43881  eV     1   --> A'             
     e( 10 - 10) =      9.44079  eV     1   --> A'             
     e( 11 - 11) =      9.90871  eV     1   --> A''            
     e( 12 - 12) =     10.32899  eV     1   --> A'             
     e( 13 - 13) =     10.38585  eV     1   --> A'             
     e( 14 - 14) =     10.58762  eV     1   --> A'             
     e( 15 - 15) =     10.59770  eV     1   --> A''            
     e( 16 - 16) =     10.93208  eV     1   --> A'             
     e( 17 - 17) =     11.20293  eV     1   --> A''            
     e( 18 - 18) =     11.38039  eV     1   --> A''            
     e( 19 - 19) =     11.38057  eV     1   --> A'             
     e( 20 - 20) =     11.64206  eV     1   --> A'             
     e( 21 - 21) =     11.71195  eV     1   --> A'             
     e( 22 - 22) =     11.83153  eV     1   --> A''            
     e( 23 - 23) =     11.84010  eV     1   --> A'             
     e( 24 - 24) =     12.13258  eV     1   --> A''            
     e( 25 - 25) =     14.52051  eV     1   --> A'             
     e( 26 - 26) =     15.59642  eV     1   --> A'             
     e( 27 - 27) =     18.85145  eV     1   --> A''            
     e( 28 - 28) =     18.86386  eV     1   --> A'             
     e( 29 - 29) =     20.13742  eV     1   --> A'             
     e( 30 - 30) =     21.35245  eV     1   --> A'             
     e( 31 - 31) =     23.05570  eV     1   --> A''            
     e( 32 - 32) =     23.05647  eV     1   --> A'             
     e( 33 - 33) =     24.56765  eV     1   --> A'             
     e( 34 - 34) =     27.16172  eV     1   --> A'             
     e( 35 - 35) =     29.08977  eV     1   --> A''            
     e( 36 - 36) =     29.12512  eV     1   --> A'             
     e( 37 - 37) =     29.91535  eV     1   --> A''            
     e( 38 - 38) =     30.52370  eV     1   --> A'             
     e( 39 - 39) =     31.45552  eV     1   --> A''            
     e( 40 - 40) =     33.41155  eV     1   --> A'             

 **************************************************************************

 **************************************************************************

                    xk=(   0.45000,   0.00000,   0.00000  )

     Band symmetry, C_s (m)     point group:

[...]
     e(  9 -  9) =      8.86515  eV     1   --> A              
     e( 10 - 10) =      9.02894  eV     1   --> A              
     e( 11 - 11) =     10.19385  eV     1   --> A              
     e( 12 - 12) =     10.27539  eV     1   --> A              
     e( 13 - 13) =     10.30128  eV     1   --> A              
     e( 14 - 14) =     10.46563  eV     1   --> A              
     e( 15 - 15) =     10.55085  eV     1   --> A              
     e( 16 - 16) =     11.21389  eV     1   --> A              
     e( 17 - 17) =     11.30777  eV     1   --> A              
     e( 18 - 18) =     11.36652  eV     1   --> A              
     e( 19 - 19) =     11.40471  eV     1   --> A              
     e( 20 - 20) =     11.81004  eV     1   --> A              
     e( 21 - 21) =     11.84325  eV     1   --> A              
     e( 22 - 22) =     12.01662  eV     1   --> A              
     e( 23 - 23) =     12.05939  eV     1   --> A              
     e( 24 - 24) =     12.09365  eV     1   --> A              
     e( 25 - 25) =     14.24620  eV     1   --> A              
     e( 26 - 26) =     17.31826  eV     1   --> A              
     e( 27 - 27) =     17.32940  eV     1   --> A              
     e( 28 - 28) =     18.21570  eV     1   --> A              
     e( 29 - 29) =     19.74586  eV     1   --> A              
     e( 30 - 30) =     20.53475  eV     1   --> A              
     e( 31 - 31) =     23.94210  eV     1   --> A              
     e( 32 - 32) =     24.70652  eV     1   --> A              
     e( 33 - 33) =     25.36157  eV     1   --> A              
     e( 34 - 34) =     26.25943  eV     1   --> A              
     e( 35 - 35) =     28.80169  eV     1   --> A              
     e( 36 - 36) =     29.17340  eV     1   --> A              
     e( 37 - 37) =     30.15066  eV     1   --> A              
     e( 38 - 38) =     30.73403  eV     1   --> A              
     e( 39 - 39) =     30.85392  eV     1   --> A              
     e( 40 - 40) =     31.27046  eV     1   --> A              

 **************************************************************************

 **************************************************************************

                    xk=(   0.08333,  -0.08334,   0.00000  )

     Band symmetry, C_1 (1)     point group:

     e(  1 -  1) =     -4.28940  eV     1   --> A              
     e(  2 -  2) =      5.91861  eV     1   --> A              
     e(  3 -  3) =      7.51151  eV     1   --> A              
     e(  4 -  4) =      7.61841  eV     1   --> A              
     e(  5 -  5) =      7.80525  eV     1   --> A              
     e(  6 -  6) =      8.73475  eV     1   --> A              
     e(  7 -  7) =      8.77427  eV     1   --> A              
     e(  8 -  8) =      8.81690  eV     1   --> A              
     e(  9 -  9) =      8.82456  eV     1   --> A              
     e( 10 - 10) =      8.97518  eV     1   --> A              
     e( 11 - 11) =     10.20509  eV     1   --> A              
     e( 12 - 12) =     10.26340  eV     1   --> A              
     e( 13 - 13) =     10.28436  eV     1   --> A              
     e( 14 - 14) =     10.44807  eV     1   --> A              
     e( 15 - 15) =     10.52890  eV     1   --> A              
     e( 16 - 16) =     11.22559  eV     1   --> A              
     e( 17 - 17) =     11.31632  eV     1   --> A              
     e( 18 - 18) =     11.33645  eV     1   --> A              
     e( 19 - 19) =     11.38518  eV     1   --> A              
     e( 20 - 20) =     11.82280  eV     1   --> A              
     e( 21 - 21) =     11.83631  eV     1   --> A              
     e( 22 - 22) =     12.04411  eV     1   --> A              
     e( 23 - 23) =     12.08176  eV     1   --> A              
     e( 24 - 24) =     12.10607  eV     1   --> A              
     e( 25 - 25) =     14.18228  eV     1   --> A              
     e( 26 - 26) =     17.45335  eV     1   --> A              
     e( 27 - 27) =     17.48389  eV     1   --> A              
     e( 28 - 28) =     18.15992  eV     1   --> A              
     e( 29 - 29) =     19.62338  eV     1   --> A              
     e( 30 - 30) =     20.22239  eV     1   --> A              
     e( 31 - 31) =     24.29630  eV     1   --> A              
     e( 32 - 32) =     24.88260  eV     1   --> A              
     e( 33 - 33) =     25.37216  eV     1   --> A              
     e( 34 - 34) =     26.08372  eV     1   --> A              
     e( 35 - 35) =     28.88813  eV     1   --> A              
     e( 36 - 36) =     29.25058  eV     1   --> A              
     e( 37 - 37) =     29.86340  eV     1   --> A              
     e( 38 - 38) =     30.80330  eV     1   --> A              
     e( 39 - 39) =     30.86884  eV     1   --> A              
     e( 40 - 40) =     31.29554  eV     1   --> A              

 **************************************************************************

 **************************************************************************

                    xk=(   0.06667,  -0.06667,   0.00000  )

     Band symmetry, C_1 (1)     point group:

     e(  1 -  1) =     -4.31168  eV     1   --> A              
     e(  2 -  2) =      5.90735  eV     1   --> A              
     e(  3 -  3) =      7.63221  eV     1   --> A              
     e(  4 -  4) =      7.69280  eV     1   --> A              
     e(  5 -  5) =      7.86612  eV     1   --> A              
     e(  6 -  6) =      8.72245  eV     1   --> A              
     e(  7 -  7) =      8.74940  eV     1   --> A              
     e(  8 -  8) =      8.77437  eV     1   --> A              
     e(  9 -  9) =      8.80964  eV     1   --> A              
     e( 10 - 10) =      8.92203  eV     1   --> A              
     e( 11 - 11) =     10.21448  eV     1   --> A              
     e( 12 - 12) =     10.25355  eV     1   --> A              
     e( 13 - 13) =     10.26993  eV     1   --> A              
     e( 14 - 14) =     10.43022  eV     1   --> A              
     e( 15 - 15) =     10.49836  eV     1   --> A              
     e( 16 - 16) =     11.23585  eV     1   --> A              
     e( 17 - 17) =     11.31186  eV     1   --> A              
     e( 18 - 18) =     11.31226  eV     1   --> A              
     e( 19 - 19) =     11.38075  eV     1   --> A              
     e( 20 - 20) =     11.83115  eV     1   --> A              
     e( 21 - 21) =     11.83232  eV     1   --> A              
     e( 22 - 22) =     12.07044  eV     1   --> A              
     e( 23 - 23) =     12.10093  eV     1   --> A              
     e( 24 - 24) =     12.11638  eV     1   --> A              
     e( 25 - 25) =     14.12847  eV     1   --> A              
     e( 26 - 26) =     17.58762  eV     1   --> A              
     e( 27 - 27) =     17.63677  eV     1   --> A              
     e( 28 - 28) =     18.11359  eV     1   --> A              
     e( 29 - 29) =     19.50970  eV     1   --> A              
     e( 30 - 30) =     19.93379  eV     1   --> A              
     e( 31 - 31) =     24.63093  eV     1   --> A              
     e( 32 - 32) =     25.04438  eV     1   --> A              
     e( 33 - 33) =     25.38326  eV     1   --> A              
     e( 34 - 34) =     25.93219  eV     1   --> A              
     e( 35 - 35) =     28.95924  eV     1   --> A              
     e( 36 - 36) =     29.27480  eV     1   --> A              
     e( 37 - 37) =     29.60993  eV     1   --> A              
     e( 38 - 38) =     30.89175  eV     1   --> A              
     e( 39 - 39) =     30.90337  eV     1   --> A              
     e( 40 - 40) =     31.28075  eV     1   --> A              

 **************************************************************************

 **************************************************************************

                    xk=(   0.05000,  -0.05001,   0.00000  )

     Band symmetry, C_1 (1)     point group:

     e(  1 -  1) =     -4.32924  eV     1   --> A              
     e(  2 -  2) =      5.89699  eV     1   --> A              
     e(  3 -  3) =      7.73321  eV     1   --> A              
     e(  4 -  4) =      7.76160  eV     1   --> A              
     e(  5 -  5) =      7.91753  eV     1   --> A              
     e(  6 -  6) =      8.71370  eV     1   --> A              
     e(  7 -  7) =      8.72601  eV     1   --> A              
     e(  8 -  8) =      8.74303  eV     1   --> A              
     e(  9 -  9) =      8.79736  eV     1   --> A              
     e( 10 - 10) =      8.87133  eV     1   --> A              
     e( 11 - 11) =     10.22209  eV     1   --> A              
     e( 12 - 12) =     10.24587  eV     1   --> A              
     e( 13 - 13) =     10.25821  eV     1   --> A              
     e( 14 - 14) =     10.41389  eV     1   --> A              
     e( 15 - 15) =     10.46421  eV     1   --> A              
     e( 16 - 16) =     11.24505  eV     1   --> A              
     e( 17 - 17) =     11.29281  eV     1   --> A              
     e( 18 - 18) =     11.30116  eV     1   --> A              
     e( 19 - 19) =     11.38564  eV     1   --> A              
     e( 20 - 20) =     11.83015  eV     1   --> A              
     e( 21 - 21) =     11.83642  eV     1   --> A              
     e( 22 - 22) =     12.09343  eV     1   --> A              
     e( 23 - 23) =     12.11621  eV     1   --> A              
     e( 24 - 24) =     12.12443  eV     1   --> A              
     e( 25 - 25) =     14.08572  eV     1   --> A              
     e( 26 - 26) =     17.72534  eV     1   --> A              
     e( 27 - 27) =     17.77156  eV     1   --> A              
     e( 28 - 28) =     18.07675  eV     1   --> A              
     e( 29 - 29) =     19.40833  eV     1   --> A              
     e( 30 - 30) =     19.67553  eV     1   --> A              
     e( 31 - 31) =     24.92997  eV     1   --> A              
     e( 32 - 32) =     25.18448  eV     1   --> A              
     e( 33 - 33) =     25.39346  eV     1   --> A              
     e( 34 - 34) =     25.80962  eV     1   --> A              
     e( 35 - 35) =     29.01660  eV     1   --> A              
     e( 36 - 36) =     29.25226  eV     1   --> A              
     e( 37 - 37) =     29.39899  eV     1   --> A              
     e( 38 - 38) =     30.95754  eV     1   --> A              
     e( 39 - 39) =     30.98052  eV     1   --> A              
     e( 40 - 40) =     31.23456  eV     1   --> A              

 **************************************************************************

 **************************************************************************

                    xk=(   0.03333,  -0.03334,   0.00000  )

     Band symmetry, C_1 (1)     point group:

     e(  1 -  1) =     -4.34188  eV     1   --> A              
     e(  2 -  2) =      5.88883  eV     1   --> A              
     e(  3 -  3) =      7.80995  eV     1   --> A              
     e(  4 -  4) =      7.81917  eV     1   --> A              
     e(  5 -  5) =      7.95533  eV     1   --> A              
     e(  6 -  6) =      8.70509  eV     1   --> A              
     e(  7 -  7) =      8.70837  eV     1   --> A              
     e(  8 -  8) =      8.72538  eV     1   --> A              
     e(  9 -  9) =      8.78793  eV     1   --> A              
     e( 10 - 10) =      8.82619  eV     1   --> A              
     e( 11 - 11) =     10.22807  eV     1   --> A              
     e( 12 - 12) =     10.24041  eV     1   --> A              
     e( 13 - 13) =     10.24904  eV     1   --> A              
     e( 14 - 14) =     10.40079  eV     1   --> A              
     e( 15 - 15) =     10.43304  eV     1   --> A              
     e( 16 - 16) =     11.25359  eV     1   --> A              
     e( 17 - 17) =     11.27927  eV     1   --> A              
     e( 18 - 18) =     11.28972  eV     1   --> A              
     e( 19 - 19) =     11.39191  eV     1   --> A              
     e( 20 - 20) =     11.82909  eV     1   --> A              
     e( 21 - 21) =     11.83955  eV     1   --> A              
     e( 22 - 22) =     12.11137  eV     1   --> A              
     e( 23 - 23) =     12.12699  eV     1   --> A              
     e( 24 - 24) =     12.13021  eV     1   --> A              
     e( 25 - 25) =     14.05467  eV     1   --> A              
     e( 26 - 26) =     17.85443  eV     1   --> A              
     e( 27 - 27) =     17.88087  eV     1   --> A              
     e( 28 - 28) =     18.04890  eV     1   --> A              
     e( 29 - 29) =     19.32541  eV     1   --> A              
     e( 30 - 30) =     19.46026  eV     1   --> A              
     e( 31 - 31) =     25.17228  eV     1   --> A              
     e( 32 - 32) =     25.29423  eV     1   --> A              
     e( 33 - 33) =     25.40158  eV     1   --> A              
     e( 34 - 34) =     25.71955  eV     1   --> A              
     e( 35 - 35) =     29.05885  eV     1   --> A              
     e( 36 - 36) =     29.20113  eV     1   --> A              
     e( 37 - 37) =     29.23824  eV     1   --> A              
     e( 38 - 38) =     31.03265  eV     1   --> A              
     e( 39 - 39) =     31.03878  eV     1   --> A              
     e( 40 - 40) =     31.18779  eV     1   --> A              

 **************************************************************************

 **************************************************************************

                    xk=(   0.01667,  -0.01667,   0.00000  )

     Band symmetry, C_1 (1)     point group:

     e(  1 -  1) =     -4.34943  eV     1   --> A              
     e(  2 -  2) =      5.88369  eV     1   --> A              
     e(  3 -  3) =      7.85845  eV     1   --> A              
     e(  4 -  4) =      7.85991  eV     1   --> A              
     e(  5 -  5) =      7.97743  eV     1   --> A              
     e(  6 -  6) =      8.69395  eV     1   --> A              
     e(  7 -  7) =      8.70590  eV     1   --> A              
     e(  8 -  8) =      8.71639  eV     1   --> A              
     e(  9 -  9) =      8.78220  eV     1   --> A              
     e( 10 - 10) =      8.79313  eV     1   --> A              
     e( 11 - 11) =     10.23281  eV     1   --> A              
     e( 12 - 12) =     10.23719  eV     1   --> A              
     e( 13 - 13) =     10.24241  eV     1   --> A              
     e( 14 - 14) =     10.39233  eV     1   --> A              
     e( 15 - 15) =     10.41125  eV     1   --> A              
     e( 16 - 16) =     11.26183  eV     1   --> A              
     e( 17 - 17) =     11.27126  eV     1   --> A              
     e( 18 - 18) =     11.27971  eV     1   --> A              
     e( 19 - 19) =     11.39644  eV     1   --> A              
     e( 20 - 20) =     11.82876  eV     1   --> A              
     e( 21 - 21) =     11.84124  eV     1   --> A              
     e( 22 - 22) =     12.12320  eV     1   --> A              
     e( 23 - 23) =     12.13307  eV     1   --> A              
     e( 24 - 24) =     12.13375  eV     1   --> A              
     e( 25 - 25) =     14.03590  eV     1   --> A              
     e( 26 - 26) =     17.95326  eV     1   --> A              
     e( 27 - 27) =     17.95754  eV     1   --> A              
     e( 28 - 28) =     18.02841  eV     1   --> A              
     e( 29 - 29) =     19.26973  eV     1   --> A              
     e( 30 - 30) =     19.30996  eV     1   --> A              
     e( 31 - 31) =     25.33299  eV     1   --> A              
     e( 32 - 32) =     25.36493  eV     1   --> A              
     e( 33 - 33) =     25.40667  eV     1   --> A              
     e( 34 - 34) =     25.66452  eV     1   --> A              
     e( 35 - 35) =     29.09000  eV     1   --> A              
     e( 36 - 36) =     29.13983  eV     1   --> A              
     e( 37 - 37) =     29.15144  eV     1   --> A              
     e( 38 - 38) =     31.03280  eV     1   --> A              
     e( 39 - 39) =     31.12692  eV     1   --> A              
     e( 40 - 40) =     31.19203  eV     1   --> A              

 **************************************************************************

 **************************************************************************

                    xk=(   0.00000,   0.00000,   0.00000  )

     point group C_2v (mm2) 
     there are  4 classes
     the character table:

       E     C2    s_v   s_v' 
A_1    1.00  1.00  1.00  1.00
A_2    1.00  1.00 -1.00 -1.00
B_1    1.00 -1.00  1.00 -1.00
B_2    1.00 -1.00 -1.00  1.00

     the symmetry operations in each class and the name of the first element:

     E        1
                                                                 
     C2       2
                                                                 
     s_v      3
                                                                 
     s_v'     4
                                                                 

     Band symmetry, C_2v (mm2)  point group:

     e(  1 -  1) =     -4.35196  eV     1   --> A_1  D_1  S_1  
     e(  2 -  2) =      5.88192  eV     1   --> A_1  D_1  S_1  
     e(  3 -  3) =      7.87472  eV     1   --> B_1  D_3  S_3  
     e(  4 -  4) =      7.87514  eV     1   --> B_2  D_4  S_4  
     e(  5 -  5) =      7.98416  eV     1   --> A_1  D_1  S_1  
     e(  6 -  6) =      8.69131  eV     1   --> A_2  D_2  S_2  
     e(  7 -  7) =      8.70515  eV     1   --> A_1  D_1  S_1  
     e(  8 -  8) =      8.71349  eV     1   --> A_1  D_1  S_1  
     e(  9 -  9) =      8.78014  eV     1   --> B_2  D_4  S_4  
     e( 10 - 10) =      8.78025  eV     1   --> B_1  D_3  S_3  
     e( 11 - 11) =     10.23597  eV     1   --> B_2  D_4  S_4  
     e( 12 - 12) =     10.23629  eV     1   --> B_1  D_3  S_3  
     e( 13 - 13) =     10.23846  eV     1   --> A_2  D_2  S_2  
     e( 14 - 14) =     10.38940  eV     1   --> A_1  D_1  S_1  
     e( 15 - 15) =     10.40340  eV     1   --> A_1  D_1  S_1  
     e( 16 - 17) =     11.26857  eV     2   --> B_1  D_3  S_3  
     e( 16 - 17) =     11.26857  eV     2   --> B_2  D_4  S_4  
     e( 18 - 18) =     11.27241  eV     1   --> A_2  D_2  S_2  
     e( 19 - 19) =     11.39802  eV     1   --> A_1  D_1  S_1  
     e( 20 - 20) =     11.82865  eV     1   --> A_1  D_1  S_1  
     e( 21 - 21) =     11.84176  eV     1   --> A_1  D_1  S_1  
     e( 22 - 22) =     12.12756  eV     1   --> A_2  D_2  S_2  
     e( 23 - 23) =     12.13466  eV     1   --> B_1  D_3  S_3  
     e( 24 - 24) =     12.13505  eV     1   --> B_2  D_4  S_4  
     e( 25 - 25) =     14.02960  eV     1   --> A_1  D_1  S_1  
     e( 26 - 26) =     17.99114  eV     1   --> B_1  D_3  S_3  
     e( 27 - 27) =     17.99274  eV     1   --> B_2  D_4  S_4  
     e( 28 - 28) =     18.01398  eV     1   --> A_1  D_1  S_1  
     e( 29 - 29) =     19.24967  eV     1   --> A_1  D_1  S_1  
     e( 30 - 30) =     19.25432  eV     1   --> A_1  D_1  S_1  
     e( 31 - 31) =     25.38907  eV     1   --> B_1  D_3  S_3  
     e( 32 - 32) =     25.39025  eV     1   --> B_2  D_4  S_4  
     e( 33 - 33) =     25.40813  eV     1   --> A_1  D_1  S_1  
     e( 34 - 34) =     25.64601  eV     1   --> A_1  D_1  S_1  
     e( 35 - 35) =     29.10491  eV     1   --> B_1  D_3  S_3  
     e( 36 - 36) =     29.10709  eV     1   --> B_2  D_4  S_4  
     e( 37 - 37) =     29.12550  eV     1   --> A_2  D_2  S_2  
     e( 38 - 38) =     31.01838  eV     1   --> A_1  D_1  S_1  
     e( 39 - 39) =     31.20417  eV     1   --> B_1  D_3  S_3  
     e( 40 - 40) =     31.20550  eV     1   --> B_2  D_4  S_4  

 **************************************************************************

     BANDS        :     3.33s CPU         6.02s WALL


   This run was terminated on:  13:47:18   4Aug2020            

=------------------------------------------------------------------------------=
   JOB DONE.
=------------------------------------------------------------------------------=
