--------------------------------------------------------------------------
WARNING: Linux kernel CMA support was requested via the
btl_vader_single_copy_mechanism MCA variable, but CMA support is
not available due to restrictive ptrace settings.

The vader shared memory BTL will fall back on another single-copy
mechanism if one is available. This may result in lower performance.

  Local host: DESKTOP-L90FV74
--------------------------------------------------------------------------

     Program PWSCF v.6.0 (svn rev. 13079) starts on  4Aug2020 at 13:41:52 

     This program is part of the open-source Quantum ESPRESSO suite
     for quantum simulation of materials; please cite
         "P. Giannozzi et al., J. Phys.:Condens. Matter 21 395502 (2009);
          URL http://www.quantum-espresso.org", 
     in publications or presentations arising from this work. More details at
     http://www.quantum-espresso.org/quote

     Parallel version (MPI), running on    15 processors
     R & G space division:  proc/nbgrp/npool/nimage =      15
     Waiting for input...
     Reading input from standard input

     Current dimensions of program PWSCF are:
     Max number of different atomic species (ntypx) = 10
     Max number of k-points (npk) =  40000
     Max angular momentum in pseudopotentials (lmaxx) =  3
               file Cu.pbe-dn-kjpaw_psl.1.0.0.UPF: wavefunction(s)  4S 3D renormalized
               file N.pbe-n-kjpaw_psl.1.0.0.UPF: wavefunction(s)  2S renormalized

     Subspace diagonalization in iterative solution of the eigenvalue problem:
     one sub-group per band group will be used
     ELPA distributed-memory algorithm (size of sub-group:  2*  2 procs)


     Parallelization info
     --------------------
     sticks:   dense  smooth     PW     G-vecs:    dense   smooth      PW
     Min          41      41     12                  783      783     128
     Max          42      42     13                  786      786     131
     Sum         621     621    185                11753    11753    1935



     bravais-lattice index     =            0
     lattice parameter (alat)  =       7.0055  a.u.
     unit-cell volume          =     343.7659 (a.u.)^3
     number of atoms/cell      =            5
     number of atomic types    =            2
     number of electrons       =        49.00
     number of Kohn-Sham states=           30
     kinetic-energy cutoff     =      40.0000  Ry
     charge density cutoff     =     160.0000  Ry
     convergence threshold     =      1.0E-10
     mixing beta               =       0.7000
     number of iterations used =            8  plain     mixing
     Exchange-correlation      =  SLA  PW   PBX  PBC ( 1  4  3  4 0 0)

     celldm(1)=   7.005497  celldm(2)=   0.000000  celldm(3)=   0.000000
     celldm(4)=   0.000000  celldm(5)=   0.000000  celldm(6)=   0.000000

     crystal axes: (cart. coord. in units of alat)
               a(1) = (   1.000000   0.000000   0.000000 )  
               a(2) = (   0.000000   0.999876   0.000000 )  
               a(3) = (   0.000000   0.000000   1.000000 )  

     reciprocal axes: (cart. coord. in units 2 pi/alat)
               b(1) = (  1.000000  0.000000  0.000000 )  
               b(2) = (  0.000000  1.000124  0.000000 )  
               b(3) = (  0.000000  0.000000  1.000000 )  


     PseudoPot. # 1 for Cu read from file:
     ../pseudo/Cu.pbe-dn-kjpaw_psl.1.0.0.UPF
     MD5 check sum: d0575d8777d02cc05b6679c1e3a9a036
     Pseudo is Projector augmented-wave + core cor, Zval = 11.0
     Generated using "atomic" code by A. Dal Corso  v.6.3
     Shape of augmentation charge: PSQ
     Using radial grid of 1199 points,  6 beta functions with: 
                l(1) =   0
                l(2) =   0
                l(3) =   1
                l(4) =   1
                l(5) =   2
                l(6) =   2
     Q(r) pseudized with 0 coefficients 


     PseudoPot. # 2 for  N read from file:
     ../pseudo/N.pbe-n-kjpaw_psl.1.0.0.UPF
     MD5 check sum: 57d39628416b425e94b4a4c0ec66cafa
     Pseudo is Projector augmented-wave + core cor, Zval =  5.0
     Generated using "atomic" code by A. Dal Corso  v.6.3
     Shape of augmentation charge: PSQ
     Using radial grid of 1085 points,  4 beta functions with: 
                l(1) =   0
                l(2) =   0
                l(3) =   1
                l(4) =   1
     Q(r) pseudized with 0 coefficients 


     atomic species   valence    mass     pseudopotential
        Cu            11.00    63.54600     Cu( 1.00)
        N              5.00    14.00700      N( 1.00)

     Starting magnetic structure 
     atomic species   magnetization
        Cu           0.000
        N            0.500

      4 Sym. Ops. (no inversion) found



   Cartesian axes

     site n.     atom                  positions (alat units)
         1           Cu  tau(   1) = (   0.0000000   0.0000000   0.0000000  )
         2           Cu  tau(   2) = (   0.5000000   0.4999378   0.0000000  )
         3           Cu  tau(   3) = (   0.0000000   0.4999378   0.4749170  )
         4           Cu  tau(   4) = (   0.5000000   0.0000000   0.4747944  )
         5           N   tau(   5) = (   0.0000000   0.4999378   0.9976365  )

     number of k points=     8  gaussian smearing, width (Ry)=  0.0200
                       cart. coord. in units 2pi/alat
        k(    1) = (   0.1250000   0.1250155   0.1250000), wk =   0.1250000
        k(    2) = (   0.1250000   0.1250155   0.3750000), wk =   0.1250000
        k(    3) = (   0.1250000   0.3750466   0.1250000), wk =   0.1250000
        k(    4) = (   0.1250000   0.3750466   0.3750000), wk =   0.1250000
        k(    5) = (   0.3750000   0.1250155   0.3750000), wk =   0.1250000
        k(    6) = (   0.3750000   0.3750466   0.3750000), wk =   0.1250000
        k(    7) = (   0.3750000  -0.1250155   0.1250000), wk =   0.1250000
        k(    8) = (   0.3750000  -0.3750466   0.1250000), wk =   0.1250000

     Dense  grid:    11753 G-vectors     FFT dimensions: (  30,  30,  30)

     Estimated max dynamical RAM per process >       2.13Mb

     Estimated total allocated dynamical RAM >      32.01Mb
     Generating pointlists ...
     new r_m :   0.1969 (alat units)  1.3792 (a.u.) for type    1
     new r_m :   0.1969 (alat units)  1.3792 (a.u.) for type    2

     Check: negative/imaginary core charge=   -0.000012    0.000000

     Initial potential from superposition of free atoms

     starting charge   48.99908, renormalised to   49.00000
     Starting wfc are   40 randomized atomic wfcs
     Checking if some PAW data can be deallocated... 

     total cpu time spent up to now is        2.9 secs

     per-process dynamical memory:    14.9 Mb

     Self-consistent Calculation

     iteration #  1     ecut=    40.00 Ry     beta=0.70
     Davidson diagonalization with overlap
     ethr =  1.00E-02,  avg # of iterations =  2.9

     total cpu time spent up to now is        4.6 secs

     total energy              =    -879.98538918 Ry
     Harris-Foulkes estimate   =    -880.45768844 Ry
     estimated scf accuracy    <       0.74961621 Ry

     total magnetization       =     0.37 Bohr mag/cell
     absolute magnetization    =     0.56 Bohr mag/cell

     iteration #  2     ecut=    40.00 Ry     beta=0.70
     Davidson diagonalization with overlap
     ethr =  1.53E-03,  avg # of iterations =  2.4

     total cpu time spent up to now is        6.2 secs

     total energy              =    -879.99540897 Ry
     Harris-Foulkes estimate   =    -880.97834748 Ry
     estimated scf accuracy    <       2.49592478 Ry

     total magnetization       =     0.21 Bohr mag/cell
     absolute magnetization    =     0.32 Bohr mag/cell

     iteration #  3     ecut=    40.00 Ry     beta=0.70
     Davidson diagonalization with overlap
     ethr =  1.53E-03,  avg # of iterations =  2.0

     total cpu time spent up to now is        7.8 secs

     total energy              =    -880.41445670 Ry
     Harris-Foulkes estimate   =    -880.42214138 Ry
     estimated scf accuracy    <       0.03227519 Ry

     total magnetization       =     0.16 Bohr mag/cell
     absolute magnetization    =     0.27 Bohr mag/cell

     iteration #  4     ecut=    40.00 Ry     beta=0.70
     Davidson diagonalization with overlap
     ethr =  6.59E-05,  avg # of iterations =  2.6

     total cpu time spent up to now is        9.6 secs

     total energy              =    -880.41671386 Ry
     Harris-Foulkes estimate   =    -880.43567230 Ry
     estimated scf accuracy    <       0.07385737 Ry

     total magnetization       =     0.12 Bohr mag/cell
     absolute magnetization    =     0.20 Bohr mag/cell

     iteration #  5     ecut=    40.00 Ry     beta=0.70
     Davidson diagonalization with overlap
     ethr =  6.59E-05,  avg # of iterations =  2.0

     total cpu time spent up to now is       11.2 secs

     total energy              =    -880.43034741 Ry
     Harris-Foulkes estimate   =    -880.43146023 Ry
     estimated scf accuracy    <       0.00652293 Ry

     total magnetization       =     0.06 Bohr mag/cell
     absolute magnetization    =     0.11 Bohr mag/cell

     iteration #  6     ecut=    40.00 Ry     beta=0.70
     Davidson diagonalization with overlap
     ethr =  1.33E-05,  avg # of iterations =  2.0

     total cpu time spent up to now is       12.7 secs

     total energy              =    -880.43144994 Ry
     Harris-Foulkes estimate   =    -880.43183411 Ry
     estimated scf accuracy    <       0.00158178 Ry

     total magnetization       =     0.03 Bohr mag/cell
     absolute magnetization    =     0.06 Bohr mag/cell

     iteration #  7     ecut=    40.00 Ry     beta=0.70
     Davidson diagonalization with overlap
     ethr =  3.23E-06,  avg # of iterations =  1.5

     total cpu time spent up to now is       14.3 secs

     total energy              =    -880.43168396 Ry
     Harris-Foulkes estimate   =    -880.43167915 Ry
     estimated scf accuracy    <       0.00011022 Ry

     total magnetization       =     0.01 Bohr mag/cell
     absolute magnetization    =     0.03 Bohr mag/cell

     iteration #  8     ecut=    40.00 Ry     beta=0.70
     Davidson diagonalization with overlap
     ethr =  2.25E-07,  avg # of iterations =  2.9

     total cpu time spent up to now is       15.8 secs

     total energy              =    -880.43169477 Ry
     Harris-Foulkes estimate   =    -880.43174149 Ry
     estimated scf accuracy    <       0.00017097 Ry

     total magnetization       =     0.00 Bohr mag/cell
     absolute magnetization    =     0.01 Bohr mag/cell

     iteration #  9     ecut=    40.00 Ry     beta=0.70
     Davidson diagonalization with overlap
     ethr =  2.25E-07,  avg # of iterations =  2.0

     total cpu time spent up to now is       17.1 secs

     total energy              =    -880.43172253 Ry
     Harris-Foulkes estimate   =    -880.43172477 Ry
     estimated scf accuracy    <       0.00001380 Ry

     total magnetization       =     0.00 Bohr mag/cell
     absolute magnetization    =     0.01 Bohr mag/cell

     iteration # 10     ecut=    40.00 Ry     beta=0.70
     Davidson diagonalization with overlap
     ethr =  2.82E-08,  avg # of iterations =  2.0

     total cpu time spent up to now is       18.4 secs

     total energy              =    -880.43172392 Ry
     Harris-Foulkes estimate   =    -880.43172431 Ry
     estimated scf accuracy    <       0.00000178 Ry

     total magnetization       =     0.00 Bohr mag/cell
     absolute magnetization    =     0.00 Bohr mag/cell

     iteration # 11     ecut=    40.00 Ry     beta=0.70
     Davidson diagonalization with overlap
     ethr =  3.64E-09,  avg # of iterations =  2.1

     total cpu time spent up to now is       20.0 secs

     total energy              =    -880.43172428 Ry
     Harris-Foulkes estimate   =    -880.43172433 Ry
     estimated scf accuracy    <       0.00000015 Ry

     total magnetization       =     0.00 Bohr mag/cell
     absolute magnetization    =     0.00 Bohr mag/cell

     iteration # 12     ecut=    40.00 Ry     beta=0.70
     Davidson diagonalization with overlap
     ethr =  3.11E-10,  avg # of iterations =  2.0

     total cpu time spent up to now is       21.5 secs

     total energy              =    -880.43172428 Ry
     Harris-Foulkes estimate   =    -880.43172436 Ry
     estimated scf accuracy    <       0.00000032 Ry

     total magnetization       =     0.00 Bohr mag/cell
     absolute magnetization    =     0.00 Bohr mag/cell

     iteration # 13     ecut=    40.00 Ry     beta=0.70
     Davidson diagonalization with overlap
     ethr =  3.11E-10,  avg # of iterations =  2.0

     total cpu time spent up to now is       23.0 secs

     total energy              =    -880.43172432 Ry
     Harris-Foulkes estimate   =    -880.43172432 Ry
     estimated scf accuracy    <       0.00000002 Ry

     total magnetization       =     0.00 Bohr mag/cell
     absolute magnetization    =     0.00 Bohr mag/cell

     iteration # 14     ecut=    40.00 Ry     beta=0.70
     Davidson diagonalization with overlap
     ethr =  4.31E-11,  avg # of iterations =  2.0

     total cpu time spent up to now is       24.6 secs

     total energy              =    -880.43172432 Ry
     Harris-Foulkes estimate   =    -880.43172432 Ry
     estimated scf accuracy    <          8.7E-09 Ry

     total magnetization       =     0.00 Bohr mag/cell
     absolute magnetization    =     0.00 Bohr mag/cell

     iteration # 15     ecut=    40.00 Ry     beta=0.70
     Davidson diagonalization with overlap
     ethr =  1.78E-11,  avg # of iterations =  1.5

     total cpu time spent up to now is       26.2 secs

     total energy              =    -880.43172432 Ry
     Harris-Foulkes estimate   =    -880.43172432 Ry
     estimated scf accuracy    <          1.8E-10 Ry

     total magnetization       =    -0.00 Bohr mag/cell
     absolute magnetization    =     0.00 Bohr mag/cell

     iteration # 16     ecut=    40.00 Ry     beta=0.70
     Davidson diagonalization with overlap
     ethr =  3.64E-13,  avg # of iterations =  3.1

     Magnetic moment per site:
     atom:    1    charge:    8.1220    magn:    0.0000    constr:    0.0000
     atom:    2    charge:    8.1220    magn:    0.0000    constr:    0.0000
     atom:    3    charge:    8.1240    magn:    0.0000    constr:    0.0000
     atom:    4    charge:    8.1510    magn:    0.0000    constr:    0.0000
     atom:    5    charge:    3.8002    magn:   -0.0000    constr:    0.0000

     total cpu time spent up to now is       28.2 secs

     End of self-consistent calculation

 ------ SPIN UP ------------


          k = 0.1250 0.1250 0.1250 (  1457 PWs)   bands (ev):

    -4.1457   5.9830   7.0523   7.0892   7.4927   8.8755   8.8853   8.9339
     8.9854   9.2041  10.1769  10.3271  10.3345  10.5182  10.5278  11.0861
    11.3303  11.4953  11.5112  11.7940  11.7949  11.8799  12.0758  12.0819
    14.5003  17.1893  17.2071  17.4420  21.0494  21.0582

          k = 0.1250 0.1250 0.3750 (  1473 PWs)   bands (ev):

    -3.7813   5.0633   6.6567   6.6774   7.6758   8.8190   9.1253   9.4082
     9.4109   9.4641   9.9466  10.2656  10.3187  10.5325  10.5989  10.8775
    11.1709  11.4329  11.5100  11.6026  11.6920  11.8357  12.0173  12.2734
    15.0421  15.5283  17.2337  18.8976  20.4288  21.8889

          k = 0.1250 0.3750 0.1250 (  1473 PWs)   bands (ev):

    -3.7790   5.0268   6.6443   6.7385   7.6950   8.8103   9.1512   9.3796
     9.4280   9.4750   9.9515  10.2243  10.3054  10.5350  10.5859  10.8549
    11.1543  11.4166  11.5252  11.6268  11.6917  11.8445  12.0246  12.2808
    15.0790  15.4815  17.2260  18.9069  20.4192  21.8870

          k = 0.1250 0.3750 0.3750 (  1473 PWs)   bands (ev):

    -3.4142   5.0852   5.1573   6.4310   8.2241   9.2102   9.2503   9.5616
     9.6495   9.7085   9.9379  10.0296  10.0784  10.4932  10.5605  10.7281
    11.0048  11.4857  11.5153  11.5790  11.6638  11.7908  12.1119  12.7575
    13.8655  16.2866  16.7726  18.6972  20.1236  21.8660

          k = 0.3750 0.1250 0.3750 (  1473 PWs)   bands (ev):

    -3.4145   5.0857   5.1576   6.4315   8.2241   9.2100   9.2505   9.5614
     9.6494   9.7084   9.9380  10.0297  10.0783  10.4931  10.5606  10.7280
    11.0047  11.4856  11.5151  11.5790  11.6638  11.7907  12.1117  12.7572
    13.8648  16.2872  16.7727  18.6982  20.1240  21.8665

          k = 0.3750 0.3750 0.3750 (  1469 PWs)   bands (ev):

    -3.0357   4.9779   4.9803   5.0701   8.3864   9.1992   9.4001   9.4268
     9.9202   9.9337  10.1344  10.3920  10.4059  10.5605  10.5666  10.7285
    11.2678  11.4846  11.5629  11.5678  11.6924  11.6990  12.7662  12.7703
    14.5203  14.5293  14.7327  18.0979  20.5125  21.4969

          k = 0.3750-0.1250 0.1250 (  1473 PWs)   bands (ev):

    -3.7794   5.0271   6.6448   6.7389   7.6953   8.8101   9.1510   9.3795
     9.4281   9.4749   9.9515  10.2242  10.3048  10.5350  10.5859  10.8548
    11.1543  11.4168  11.5253  11.6265  11.6918  11.8443  12.0248  12.2805
    15.0792  15.4816  17.2263  18.9067  20.4200  21.8874

          k = 0.3750-0.3750 0.1250 (  1473 PWs)   bands (ev):

    -3.4122   5.0810   5.1271   6.4734   8.2282   9.2204   9.2525   9.5656
     9.6318   9.7164   9.9344  10.0336  10.0608  10.4696  10.5615  10.7281
    11.0203  11.4712  11.5033  11.5881  11.6804  11.7909  12.1177  12.7769
    13.8538  16.2828  16.7691  18.6752  20.1202  21.8577

 ------ SPIN DOWN ----------


          k = 0.1250 0.1250 0.1250 (  1457 PWs)   bands (ev):

    -4.1457   5.9830   7.0523   7.0892   7.4927   8.8755   8.8853   8.9339
     8.9854   9.2041  10.1769  10.3271  10.3345  10.5182  10.5278  11.0861
    11.3303  11.4953  11.5112  11.7940  11.7949  11.8799  12.0758  12.0819
    14.5003  17.1893  17.2070  17.4420  21.0494  21.0582

          k = 0.1250 0.1250 0.3750 (  1473 PWs)   bands (ev):

    -3.7813   5.0633   6.6567   6.6774   7.6758   8.8190   9.1253   9.4082
     9.4109   9.4641   9.9466  10.2656  10.3187  10.5325  10.5989  10.8775
    11.1709  11.4329  11.5100  11.6026  11.6920  11.8357  12.0173  12.2734
    15.0421  15.5283  17.2337  18.8976  20.4288  21.8889

          k = 0.1250 0.3750 0.1250 (  1473 PWs)   bands (ev):

    -3.7790   5.0268   6.6443   6.7385   7.6950   8.8103   9.1512   9.3796
     9.4280   9.4750   9.9515  10.2243  10.3054  10.5350  10.5859  10.8549
    11.1543  11.4166  11.5252  11.6268  11.6917  11.8445  12.0246  12.2808
    15.0790  15.4815  17.2260  18.9069  20.4192  21.8870

          k = 0.1250 0.3750 0.3750 (  1473 PWs)   bands (ev):

    -3.4142   5.0852   5.1573   6.4310   8.2241   9.2102   9.2503   9.5616
     9.6495   9.7085   9.9379  10.0296  10.0784  10.4932  10.5605  10.7281
    11.0048  11.4857  11.5153  11.5790  11.6638  11.7908  12.1119  12.7575
    13.8655  16.2866  16.7726  18.6972  20.1236  21.8660

          k = 0.3750 0.1250 0.3750 (  1473 PWs)   bands (ev):

    -3.4145   5.0857   5.1576   6.4315   8.2240   9.2100   9.2505   9.5614
     9.6494   9.7084   9.9380  10.0297  10.0783  10.4931  10.5606  10.7280
    11.0047  11.4856  11.5151  11.5790  11.6638  11.7907  12.1117  12.7572
    13.8648  16.2872  16.7727  18.6982  20.1240  21.8665

          k = 0.3750 0.3750 0.3750 (  1469 PWs)   bands (ev):

    -3.0357   4.9779   4.9803   5.0701   8.3864   9.1992   9.4001   9.4268
     9.9202   9.9337  10.1344  10.3920  10.4059  10.5605  10.5666  10.7285
    11.2678  11.4846  11.5629  11.5678  11.6924  11.6990  12.7662  12.7703
    14.5203  14.5293  14.7327  18.0979  20.5125  21.4971

          k = 0.3750-0.1250 0.1250 (  1473 PWs)   bands (ev):

    -3.7794   5.0271   6.6448   6.7389   7.6953   8.8101   9.1510   9.3795
     9.4281   9.4749   9.9515  10.2242  10.3049  10.5350  10.5859  10.8548
    11.1543  11.4168  11.5253  11.6265  11.6918  11.8443  12.0248  12.2805
    15.0792  15.4816  17.2263  18.9067  20.4200  21.8874

          k = 0.3750-0.3750 0.1250 (  1473 PWs)   bands (ev):

    -3.4122   5.0810   5.1271   6.4734   8.2282   9.2204   9.2525   9.5656
     9.6318   9.7164   9.9344  10.0336  10.0608  10.4696  10.5615  10.7281
    11.0203  11.4712  11.5033  11.5881  11.6804  11.7909  12.1177  12.7769
    13.8538  16.2828  16.7691  18.6752  20.1202  21.8577

     the Fermi energy is    14.4245 ev

!    total energy              =    -880.43172432 Ry
     Harris-Foulkes estimate   =    -880.43172432 Ry
     estimated scf accuracy    <          1.5E-11 Ry

     total all-electron energy =    -13349.249587 Ry

     The total energy is the sum of the following terms:

     one-electron contribution =    -113.10319740 Ry
     hartree contribution      =     128.13722637 Ry
     xc contribution           =    -184.57854317 Ry
     ewald contribution        =    -343.48501911 Ry
     one-center paw contrib.   =    -367.39795698 Ry
     smearing contrib. (-TS)   =      -0.00423403 Ry

     total magnetization       =    -0.00 Bohr mag/cell
     absolute magnetization    =     0.00 Bohr mag/cell

     convergence has been achieved in  16 iterations

     Writing output data file Cu2N.save

     init_run     :      1.58s CPU      2.24s WALL (       1 calls)
     electrons    :     12.66s CPU     25.30s WALL (       1 calls)

     Called by init_run:
     wfcinit      :      0.12s CPU      0.30s WALL (       1 calls)
     potinit      :      0.64s CPU      0.88s WALL (       1 calls)

     Called by electrons:
     c_bands      :      5.09s CPU     10.77s WALL (      16 calls)
     sum_band     :      0.61s CPU      1.62s WALL (      16 calls)
     v_of_rho     :      0.09s CPU      0.14s WALL (      17 calls)
     newd         :      0.09s CPU      0.23s WALL (      17 calls)
     PAW_pot      :      7.42s CPU     13.33s WALL (      17 calls)
     mix_rho      :      0.00s CPU      0.05s WALL (      16 calls)

     Called by c_bands:
     init_us_2    :      0.02s CPU      0.03s WALL (     528 calls)
     cegterg      :      4.98s CPU     10.50s WALL (     256 calls)

     Called by sum_band:
     sum_band:bec :      0.05s CPU      0.02s WALL (     256 calls)
     addusdens    :      0.06s CPU      0.17s WALL (      16 calls)

     Called by *egterg:
     h_psi        :      2.75s CPU      6.58s WALL (     833 calls)
     s_psi        :      0.27s CPU      0.21s WALL (     833 calls)
     g_psi        :      0.00s CPU      0.00s WALL (     561 calls)
     cdiaghg      :      1.42s CPU      2.07s WALL (     817 calls)

     Called by h_psi:
     h_psi:pot    :      2.73s CPU      6.57s WALL (     833 calls)
     h_psi:calbec :      0.34s CPU      1.05s WALL (     833 calls)
     vloc_psi     :      2.09s CPU      5.31s WALL (     833 calls)
     add_vuspsi   :      0.30s CPU      0.21s WALL (     833 calls)

     General routines
     calbec       :      0.44s CPU      1.32s WALL (    1089 calls)
     fft          :      0.08s CPU      0.30s WALL (     421 calls)
     fftw         :      2.41s CPU      6.26s WALL (   46736 calls)
     davcio       :      0.00s CPU      0.00s WALL (      16 calls)

     Parallel routines
     fft_scatter  :      1.31s CPU      5.11s WALL (   47157 calls)

     PWSCF        :    14.59s CPU        28.36s WALL


   This run was terminated on:  13:42:21   4Aug2020            

=------------------------------------------------------------------------------=
   JOB DONE.
=------------------------------------------------------------------------------=
