--------------------------------------------------------------------------
WARNING: Linux kernel CMA support was requested via the
btl_vader_single_copy_mechanism MCA variable, but CMA support is
not available due to restrictive ptrace settings.

The vader shared memory BTL will fall back on another single-copy
mechanism if one is available. This may result in lower performance.

  Local host: Rijuki
--------------------------------------------------------------------------

     Program PWSCF v.6.0 (svn rev. 13079) starts on 10Apr2020 at 17:38:54 

     This program is part of the open-source Quantum ESPRESSO suite
     for quantum simulation of materials; please cite
         "P. Giannozzi et al., J. Phys.:Condens. Matter 21 395502 (2009);
          URL http://www.quantum-espresso.org", 
     in publications or presentations arising from this work. More details at
     http://www.quantum-espresso.org/quote

     Parallel version (MPI), running on    10 processors
     R & G space division:  proc/nbgrp/npool/nimage =      10
     Waiting for input...
     Reading input from standard input

     Current dimensions of program PWSCF are:
     Max number of different atomic species (ntypx) = 10
     Max number of k-points (npk) =  40000
     Max angular momentum in pseudopotentials (lmaxx) =  3
               file Cu.pbe-dn-kjpaw_psl.1.0.0.UPF: wavefunction(s)  4S 3D renormalized
               file N.pbe-n-kjpaw_psl.1.0.0.UPF: wavefunction(s)  2S renormalized

     Subspace diagonalization in iterative solution of the eigenvalue problem:
     one sub-group per band group will be used
     ELPA distributed-memory algorithm (size of sub-group:  2*  2 procs)


     Parallelization info
     --------------------
     sticks:   dense  smooth     PW     G-vecs:    dense   smooth      PW
     Min          48      48     14                  780      780     129
     Max          49      49     16                  783      783     132
     Sum         481     481    145                 7809     7809    1309



     bravais-lattice index     =            0
     lattice parameter (alat)  =       7.0298  a.u.
     unit-cell volume          =     347.3965 (a.u.)^3
     number of atoms/cell      =            5
     number of atomic types    =            2
     number of electrons       =        49.00
     number of Kohn-Sham states=           30
     kinetic-energy cutoff     =      30.0000  Ry
     charge density cutoff     =     120.0000  Ry
     convergence threshold     =      1.0E-10
     mixing beta               =       0.7000
     number of iterations used =            8  plain     mixing
     Exchange-correlation      =  SLA  PW   PBX  PBC ( 1  4  3  4 0 0)

     celldm(1)=   7.029781  celldm(2)=   0.000000  celldm(3)=   0.000000
     celldm(4)=   0.000000  celldm(5)=   0.000000  celldm(6)=   0.000000

     crystal axes: (cart. coord. in units of alat)
               a(1) = (   1.000000   0.000000   0.000000 )  
               a(2) = (   0.000000   1.000000   0.000000 )  
               a(3) = (   0.000000   0.000000   1.000000 )  

     reciprocal axes: (cart. coord. in units 2 pi/alat)
               b(1) = (  1.000000  0.000000  0.000000 )  
               b(2) = (  0.000000  1.000000  0.000000 )  
               b(3) = (  0.000000  0.000000  1.000000 )  


     PseudoPot. # 1 for Cu read from file:
     ../pseudo/Cu.pbe-dn-kjpaw_psl.1.0.0.UPF
     MD5 check sum: cfffd1f38ee05704b3e17f46f1730a6f
     Pseudo is Projector augmented-wave + core cor, Zval = 11.0
     Generated using "atomic" code by A. Dal Corso  v.6.3
     Shape of augmentation charge: PSQ
     Using radial grid of 1199 points,  6 beta functions with: 
                l(1) =   0
                l(2) =   0
                l(3) =   1
                l(4) =   1
                l(5) =   2
                l(6) =   2
     Q(r) pseudized with 0 coefficients 


     PseudoPot. # 2 for  N read from file:
     ../pseudo/N.pbe-n-kjpaw_psl.1.0.0.UPF
     MD5 check sum: 14c48229446f9f2d411169a3abcbc3fa
     Pseudo is Projector augmented-wave + core cor, Zval =  5.0
     Generated using "atomic" code by A. Dal Corso  v.6.3
     Shape of augmentation charge: PSQ
     Using radial grid of 1085 points,  4 beta functions with: 
                l(1) =   0
                l(2) =   0
                l(3) =   1
                l(4) =   1
     Q(r) pseudized with 0 coefficients 


     atomic species   valence    mass     pseudopotential
        Cu            11.00    63.54600     Cu( 1.00)
        N              5.00    14.00700      N( 1.00)

     Starting magnetic structure 
     atomic species   magnetization
        Cu           0.000
        N            0.000

     16 Sym. Ops., with inversion, found
          (note: 32 additional sym.ops. were found but ignored
           their fractional translations are incommensurate with FFT grid)


   Cartesian axes

     site n.     atom                  positions (alat units)
         1           Cu  tau(   1) = (   0.0000000   0.0000000   0.0000000  )
         2           Cu  tau(   2) = (   0.5000000   0.5000000   0.0000000  )
         3           Cu  tau(   3) = (   0.0000000   0.5000000   0.5000000  )
         4           Cu  tau(   4) = (   0.5000000   0.0000000   0.5000000  )
         5           N   tau(   5) = (   0.0000000   0.5000000   1.0000000  )

     number of k points=     6  gaussian smearing, width (Ry)=  0.0200
                       cart. coord. in units 2pi/alat
        k(    1) = (   0.1250000   0.1250000   0.1250000), wk =   0.1250000
        k(    2) = (   0.1250000   0.1250000   0.3750000), wk =   0.2500000
        k(    3) = (   0.1250000   0.3750000   0.3750000), wk =   0.2500000
        k(    4) = (   0.3750000   0.3750000   0.3750000), wk =   0.1250000
        k(    5) = (   0.1250000   0.3750000   0.1250000), wk =   0.1250000
        k(    6) = (   0.3750000   0.1250000   0.3750000), wk =   0.1250000

     Dense  grid:     7809 G-vectors     FFT dimensions: (  25,  25,  25)

     Estimated max dynamical RAM per process >       1.95Mb

     Estimated total allocated dynamical RAM >      19.51Mb
     Generating pointlists ...
     new r_m :   0.2062 (alat units)  1.4499 (a.u.) for type    1
     new r_m :   0.2062 (alat units)  1.4499 (a.u.) for type    2

     Check: negative/imaginary core charge=   -0.000075    0.000000

     Initial potential from superposition of free atoms

     starting charge   48.99908, renormalised to   49.00000
     Starting wfc are   40 randomized atomic wfcs
     Checking if some PAW data can be deallocated... 

     total cpu time spent up to now is        2.6 secs

     per-process dynamical memory:    14.5 Mb

     Self-consistent Calculation

     iteration #  1     ecut=    30.00 Ry     beta=0.70
     Davidson diagonalization with overlap
     ethr =  1.00E-02,  avg # of iterations =  2.6

     total cpu time spent up to now is        4.0 secs

     total energy              =    -879.89274646 Ry
     Harris-Foulkes estimate   =    -880.53392670 Ry
     estimated scf accuracy    <       0.77932678 Ry

     total magnetization       =     0.00 Bohr mag/cell
     absolute magnetization    =     0.01 Bohr mag/cell

     iteration #  2     ecut=    30.00 Ry     beta=0.70
     Davidson diagonalization with overlap
     ethr =  1.59E-03,  avg # of iterations =  2.2

     total cpu time spent up to now is        5.8 secs

     total energy              =    -879.93016866 Ry
     Harris-Foulkes estimate   =    -881.01885615 Ry
     estimated scf accuracy    <       2.75936374 Ry

     total magnetization       =     0.00 Bohr mag/cell
     absolute magnetization    =     0.00 Bohr mag/cell

     iteration #  3     ecut=    30.00 Ry     beta=0.70
     Davidson diagonalization with overlap
     ethr =  1.59E-03,  avg # of iterations =  2.2

     total cpu time spent up to now is        7.3 secs

     total energy              =    -880.36723289 Ry
     Harris-Foulkes estimate   =    -880.37347980 Ry
     estimated scf accuracy    <       0.01198449 Ry

     total magnetization       =     0.00 Bohr mag/cell
     absolute magnetization    =     0.00 Bohr mag/cell

     iteration #  4     ecut=    30.00 Ry     beta=0.70
     Davidson diagonalization with overlap
     ethr =  2.45E-05,  avg # of iterations =  2.7

     total cpu time spent up to now is        8.9 secs

     total energy              =    -880.36858569 Ry
     Harris-Foulkes estimate   =    -880.37420597 Ry
     estimated scf accuracy    <       0.01842003 Ry

     total magnetization       =     0.00 Bohr mag/cell
     absolute magnetization    =     0.00 Bohr mag/cell

     iteration #  5     ecut=    30.00 Ry     beta=0.70
     Davidson diagonalization with overlap
     ethr =  2.45E-05,  avg # of iterations =  2.0

     total cpu time spent up to now is       10.7 secs

     total energy              =    -880.37136197 Ry
     Harris-Foulkes estimate   =    -880.37144553 Ry
     estimated scf accuracy    <       0.00030824 Ry

     total magnetization       =     0.00 Bohr mag/cell
     absolute magnetization    =     0.00 Bohr mag/cell

     iteration #  6     ecut=    30.00 Ry     beta=0.70
     Davidson diagonalization with overlap
     ethr =  6.29E-07,  avg # of iterations =  3.0

     total cpu time spent up to now is       13.1 secs

     total energy              =    -880.37139505 Ry
     Harris-Foulkes estimate   =    -880.37146812 Ry
     estimated scf accuracy    <       0.00020955 Ry

     total magnetization       =     0.00 Bohr mag/cell
     absolute magnetization    =     0.00 Bohr mag/cell

     iteration #  7     ecut=    30.00 Ry     beta=0.70
     Davidson diagonalization with overlap
     ethr =  4.28E-07,  avg # of iterations =  1.4

     total cpu time spent up to now is       15.3 secs

     total energy              =    -880.37141756 Ry
     Harris-Foulkes estimate   =    -880.37142191 Ry
     estimated scf accuracy    <       0.00001429 Ry

     total magnetization       =     0.00 Bohr mag/cell
     absolute magnetization    =     0.00 Bohr mag/cell

     iteration #  8     ecut=    30.00 Ry     beta=0.70
     Davidson diagonalization with overlap
     ethr =  2.92E-08,  avg # of iterations =  2.3

     total cpu time spent up to now is       17.6 secs

     total energy              =    -880.37141721 Ry
     Harris-Foulkes estimate   =    -880.37142209 Ry
     estimated scf accuracy    <       0.00001715 Ry

     total magnetization       =     0.00 Bohr mag/cell
     absolute magnetization    =     0.00 Bohr mag/cell

     iteration #  9     ecut=    30.00 Ry     beta=0.70
     Davidson diagonalization with overlap
     ethr =  2.92E-08,  avg # of iterations =  1.7

     total cpu time spent up to now is       19.5 secs

     total energy              =    -880.37141939 Ry
     Harris-Foulkes estimate   =    -880.37141944 Ry
     estimated scf accuracy    <       0.00000017 Ry

     total magnetization       =     0.00 Bohr mag/cell
     absolute magnetization    =     0.00 Bohr mag/cell

     iteration # 10     ecut=    30.00 Ry     beta=0.70
     Davidson diagonalization with overlap
     ethr =  3.41E-10,  avg # of iterations =  3.0

     total cpu time spent up to now is       22.0 secs

     total energy              =    -880.37141944 Ry
     Harris-Foulkes estimate   =    -880.37141945 Ry
     estimated scf accuracy    <       0.00000004 Ry

     total magnetization       =     0.00 Bohr mag/cell
     absolute magnetization    =     0.00 Bohr mag/cell

     iteration # 11     ecut=    30.00 Ry     beta=0.70
     Davidson diagonalization with overlap
     ethr =  7.55E-11,  avg # of iterations =  1.8

     total cpu time spent up to now is       24.0 secs

     total energy              =    -880.37141944 Ry
     Harris-Foulkes estimate   =    -880.37141944 Ry
     estimated scf accuracy    <          4.3E-09 Ry

     total magnetization       =     0.00 Bohr mag/cell
     absolute magnetization    =     0.00 Bohr mag/cell

     iteration # 12     ecut=    30.00 Ry     beta=0.70
     Davidson diagonalization with overlap
     ethr =  8.87E-12,  avg # of iterations =  2.0

     total cpu time spent up to now is       26.2 secs

     total energy              =    -880.37141944 Ry
     Harris-Foulkes estimate   =    -880.37141944 Ry
     estimated scf accuracy    <          9.9E-10 Ry

     total magnetization       =     0.00 Bohr mag/cell
     absolute magnetization    =     0.00 Bohr mag/cell

     iteration # 13     ecut=    30.00 Ry     beta=0.70
     Davidson diagonalization with overlap
     ethr =  2.02E-12,  avg # of iterations =  2.0

     Magnetic moment per site:
     atom:    1    charge:    8.3786    magn:    0.0000    constr:    0.0000
     atom:    2    charge:    8.3731    magn:    0.0000    constr:    0.0000
     atom:    3    charge:    8.3731    magn:    0.0000    constr:    0.0000
     atom:    4    charge:    8.3958    magn:    0.0000    constr:    0.0000
     atom:    5    charge:    4.0598    magn:    0.0000    constr:    0.0000

     total cpu time spent up to now is       28.2 secs

     End of self-consistent calculation

 ------ SPIN UP ------------


          k = 0.1250 0.1250 0.1250 (   964 PWs)   bands (ev):

    -4.2578   5.8843   6.9892   6.9893   7.3924   8.7186   8.7189   8.7789
     8.7792   9.0048   9.9720  10.1115  10.1118  10.3222  10.3229  10.8581
    11.1087  11.2720  11.2724  11.5576  11.5578  11.6280  11.8388  11.8388
    14.2494  17.0029  17.0032  17.1920  20.8226  20.8226

          k = 0.1250 0.1250 0.3750 (   954 PWs)   bands (ev):

    -3.9002   4.9551   6.5873   6.6039   7.5697   8.6603   8.9628   9.2232
     9.2479   9.2741   9.7446  10.0559  10.1237  10.3330  10.3779  10.6483
    10.9327  11.2029  11.2748  11.3803  11.4684  11.5926  11.7752  12.0516
    14.8393  15.2657  17.0263  18.6907  20.1868  21.6677

          k = 0.1250 0.3750 0.3750 (   969 PWs)   bands (ev):

    -3.5430   5.0102   5.0538   6.3496   8.0940   9.0702   9.0747   9.3798
     9.4635   9.5285   9.7285   9.8361   9.8779  10.2763  10.3453  10.5097
    10.7791  11.2563  11.2773  11.3392  11.4210  11.5535  11.8731  12.5307
    13.6313  16.0665  16.5618  18.4516  19.9122  21.6607

          k = 0.3750 0.3750 0.3750 (   970 PWs)   bands (ev):

    -3.1745   4.9109   4.9110   4.9560   8.2406   9.0392   9.2373   9.2383
     9.7307   9.7313   9.9334  10.1991  10.1992  10.3516  10.3518  10.5373
    11.0351  11.2510  11.3298  11.3303  11.4565  11.4568  12.5414  12.5414
    14.3064  14.3070  14.4892  17.8701  20.2717  21.2959

          k = 0.1250 0.3750 0.1250 (   954 PWs)   bands (ev):

    -3.9002   4.9551   6.5875   6.6042   7.5694   8.6601   8.9621   9.2225
     9.2481   9.2734   9.7447  10.0567  10.1242  10.3326  10.3775  10.6481
    10.9326  11.2029  11.2748  11.3812  11.4685  11.5931  11.7755  12.0524
    14.8391  15.2655  17.0262  18.6902  20.1870  21.6674

          k = 0.3750 0.1250 0.3750 (   969 PWs)   bands (ev):

    -3.5429   5.0102   5.0538   6.3493   8.0942   9.0704   9.0753   9.3808
     9.4631   9.5296   9.7286   9.8357   9.8773  10.2758  10.3452  10.5096
    10.7789  11.2563  11.2776  11.3387  11.4208  11.5532  11.8727  12.5297
    13.6314  16.0667  16.5624  18.4515  19.9124  21.6613

 ------ SPIN DOWN ----------


          k = 0.1250 0.1250 0.1250 (   964 PWs)   bands (ev):

    -4.2578   5.8843   6.9892   6.9893   7.3924   8.7186   8.7189   8.7789
     8.7792   9.0048   9.9720  10.1115  10.1118  10.3222  10.3229  10.8581
    11.1087  11.2720  11.2724  11.5576  11.5578  11.6280  11.8388  11.8388
    14.2494  17.0029  17.0032  17.1920  20.8226  20.8226

          k = 0.1250 0.1250 0.3750 (   954 PWs)   bands (ev):

    -3.9002   4.9551   6.5873   6.6039   7.5697   8.6603   8.9628   9.2232
     9.2479   9.2741   9.7446  10.0559  10.1237  10.3330  10.3779  10.6483
    10.9327  11.2029  11.2748  11.3804  11.4684  11.5927  11.7752  12.0516
    14.8394  15.2657  17.0263  18.6907  20.1868  21.6676

          k = 0.1250 0.3750 0.3750 (   969 PWs)   bands (ev):

    -3.5430   5.0102   5.0538   6.3496   8.0940   9.0702   9.0747   9.3798
     9.4635   9.5285   9.7285   9.8361   9.8779  10.2763  10.3453  10.5097
    10.7791  11.2563  11.2773  11.3392  11.4210  11.5535  11.8731  12.5307
    13.6313  16.0665  16.5619  18.4516  19.9122  21.6607

          k = 0.3750 0.3750 0.3750 (   970 PWs)   bands (ev):

    -3.1745   4.9109   4.9110   4.9560   8.2406   9.0392   9.2373   9.2383
     9.7307   9.7313   9.9335  10.1991  10.1992  10.3516  10.3518  10.5373
    11.0351  11.2511  11.3298  11.3303  11.4565  11.4568  12.5414  12.5414
    14.3064  14.3070  14.4892  17.8701  20.2717  21.2961

          k = 0.1250 0.3750 0.1250 (   954 PWs)   bands (ev):

    -3.9002   4.9551   6.5876   6.6042   7.5694   8.6601   8.9621   9.2225
     9.2481   9.2734   9.7447  10.0567  10.1242  10.3326  10.3775  10.6481
    10.9326  11.2029  11.2748  11.3812  11.4685  11.5931  11.7755  12.0524
    14.8391  15.2655  17.0262  18.6902  20.1870  21.6674

          k = 0.3750 0.1250 0.3750 (   969 PWs)   bands (ev):

    -3.5429   5.0102   5.0538   6.3493   8.0942   9.0704   9.0753   9.3808
     9.4631   9.5296   9.7286   9.8357   9.8773  10.2758  10.3453  10.5096
    10.7789  11.2563  11.2776  11.3387  11.4208  11.5532  11.8727  12.5297
    13.6314  16.0667  16.5624  18.4515  19.9125  21.6613

     the Fermi energy is    14.1935 ev

!    total energy              =    -880.37141944 Ry
     Harris-Foulkes estimate   =    -880.37141944 Ry
     estimated scf accuracy    <          4.3E-11 Ry

     total all-electron energy =    -13349.189282 Ry

     The total energy is the sum of the following terms:

     one-electron contribution =    -113.79163452 Ry
     hartree contribution      =     128.01656473 Ry
     xc contribution           =    -184.42635732 Ry
     ewald contribution        =    -342.80957599 Ry
     one-center paw contrib.   =    -367.35618421 Ry
     smearing contrib. (-TS)   =      -0.00423214 Ry

     total magnetization       =     0.00 Bohr mag/cell
     absolute magnetization    =     0.00 Bohr mag/cell

     convergence has been achieved in  13 iterations

     Writing output data file Cu2N.save

     init_run     :      1.03s CPU      1.60s WALL (       1 calls)
     electrons    :     17.89s CPU     25.64s WALL (       1 calls)

     Called by init_run:
     wfcinit      :      0.17s CPU      0.27s WALL (       1 calls)
     potinit      :      0.62s CPU      0.92s WALL (       1 calls)

     Called by electrons:
     c_bands      :      6.72s CPU     10.36s WALL (      13 calls)
     sum_band     :      0.91s CPU      1.42s WALL (      13 calls)
     v_of_rho     :      0.12s CPU      0.17s WALL (      14 calls)
     newd         :      0.20s CPU      0.28s WALL (      14 calls)
     PAW_pot      :     10.53s CPU     14.20s WALL (      14 calls)
     mix_rho      :      0.03s CPU      0.06s WALL (      13 calls)

     Called by c_bands:
     init_us_2    :      0.02s CPU      0.05s WALL (     324 calls)
     cegterg      :      6.56s CPU     10.07s WALL (     156 calls)

     Called by sum_band:
     sum_band:bec :      0.06s CPU      0.03s WALL (     156 calls)
     addusdens    :      0.19s CPU      0.27s WALL (      13 calls)

     Called by *egterg:
     h_psi        :      2.73s CPU      4.46s WALL (     514 calls)
     s_psi        :      0.39s CPU      0.45s WALL (     514 calls)
     g_psi        :      0.00s CPU      0.01s WALL (     346 calls)
     cdiaghg      :      2.17s CPU      2.77s WALL (     502 calls)

     Called by h_psi:
     h_psi:pot    :      2.73s CPU      4.45s WALL (     514 calls)
     h_psi:calbec :      0.55s CPU      1.14s WALL (     514 calls)
     vloc_psi     :      1.69s CPU      2.85s WALL (     514 calls)
     add_vuspsi   :      0.48s CPU      0.46s WALL (     514 calls)

     General routines
     calbec       :      0.78s CPU      1.50s WALL (     670 calls)
     fft          :      0.09s CPU      0.27s WALL (     346 calls)
     fftw         :      1.94s CPU      3.31s WALL (   28142 calls)
     davcio       :      0.00s CPU      0.00s WALL (      12 calls)

     Parallel routines
     fft_scatter  :      1.22s CPU      2.73s WALL (   28488 calls)

     PWSCF        :    19.69s CPU        28.54s WALL


   This run was terminated on:  17:39:23  10Apr2020            

=------------------------------------------------------------------------------=
   JOB DONE.
=------------------------------------------------------------------------------=
