### Running on host: LAPTOP-ORQA1H22

     Program PWSCF v.6.0 (svn rev. 13079) starts on 11Feb2020 at 19:40:19 

     This program is part of the open-source Quantum ESPRESSO suite
     for quantum simulation of materials; please cite
         "P. Giannozzi et al., J. Phys.:Condens. Matter 21 395502 (2009);
          URL http://www.quantum-espresso.org", 
     in publications or presentations arising from this work. More details at
     http://www.quantum-espresso.org/quote

     Parallel version (MPI), running on     1 processors
     Reading input from pw.15*12.in

     Current dimensions of program PWSCF are:
     Max number of different atomic species (ntypx) = 10
     Max number of k-points (npk) =  40000
     Max angular momentum in pseudopotentials (lmaxx) =  3
               file Cu.pbe-dn-kjpaw_psl.1.0.0.UPF: wavefunction(s)  4S 3D renormalized
               file N.pbe-n-kjpaw_psl.1.0.0.UPF: wavefunction(s)  2S renormalized

     Subspace diagonalization in iterative solution of the eigenvalue problem:
     a serial algorithm will be used


     G-vector sticks info
     --------------------
     sticks:   dense  smooth     PW     G-vecs:    dense   smooth      PW
     Sum        1321     437    129                36377     7075    1045



     bravais-lattice index     =            0
     lattice parameter (alat)  =       9.6376  a.u.
     unit-cell volume          =     895.1733 (a.u.)^3
     number of atoms/cell      =            5
     number of atomic types    =            2
     number of electrons       =        49.00
     number of Kohn-Sham states=           30
     kinetic-energy cutoff     =      15.0000  Ry
     charge density cutoff     =     180.0000  Ry
     convergence threshold     =      1.0E-07
     mixing beta               =       0.7000
     number of iterations used =            8  plain     mixing
     Exchange-correlation      =  SLA  PW   PBX  PBC ( 1  4  3  4 0 0)

     celldm(1)=   9.637603  celldm(2)=   0.000000  celldm(3)=   0.000000
     celldm(4)=   0.000000  celldm(5)=   0.000000  celldm(6)=   0.000000

     crystal axes: (cart. coord. in units of alat)
               a(1) = (   1.000000   0.000000   0.000000 )  
               a(2) = (   0.000000   1.000000   0.000000 )  
               a(3) = (   0.000000   0.000000   1.000000 )  

     reciprocal axes: (cart. coord. in units 2 pi/alat)
               b(1) = (  1.000000  0.000000  0.000000 )  
               b(2) = (  0.000000  1.000000  0.000000 )  
               b(3) = (  0.000000  0.000000  1.000000 )  


     PseudoPot. # 1 for Cu read from file:
     ../pseudo/Cu.pbe-dn-kjpaw_psl.1.0.0.UPF
     MD5 check sum: cfffd1f38ee05704b3e17f46f1730a6f
     Pseudo is Projector augmented-wave + core cor, Zval = 11.0
     Generated using "atomic" code by A. Dal Corso  v.6.3
     Shape of augmentation charge: PSQ
     Using radial grid of 1199 points,  6 beta functions with: 
                l(1) =   0
                l(2) =   0
                l(3) =   1
                l(4) =   1
                l(5) =   2
                l(6) =   2
     Q(r) pseudized with 0 coefficients 


     PseudoPot. # 2 for  N read from file:
     ../pseudo/N.pbe-n-kjpaw_psl.1.0.0.UPF
     MD5 check sum: 14c48229446f9f2d411169a3abcbc3fa
     Pseudo is Projector augmented-wave + core cor, Zval =  5.0
     Generated using "atomic" code by A. Dal Corso  v.6.3
     Shape of augmentation charge: PSQ
     Using radial grid of 1085 points,  4 beta functions with: 
                l(1) =   0
                l(2) =   0
                l(3) =   1
                l(4) =   1
     Q(r) pseudized with 0 coefficients 


     atomic species   valence    mass     pseudopotential
        Cu            11.00     1.00000     Cu( 1.00)
        N              5.00     1.00000      N( 1.00)

     Starting magnetic structure 
     atomic species   magnetization
        Cu           0.000
        N            0.500

     16 Sym. Ops., with inversion, found
          (note: 32 additional sym.ops. were found but ignored
           their fractional translations are incommensurate with FFT grid)


   Cartesian axes

     site n.     atom                  positions (alat units)
         1           Cu  tau(   1) = (   0.0000000   0.0000000   0.0000000  )
         2           Cu  tau(   2) = (   0.5000000   0.5000000   0.0000000  )
         3           Cu  tau(   3) = (   0.0000000   0.5000000   0.5000000  )
         4           Cu  tau(   4) = (   0.5000000   0.0000000   0.5000000  )
         5           N   tau(   5) = (   0.0000000   0.5000000   1.0000000  )

     number of k points=     1  gaussian smearing, width (Ry)=  0.0200
                       cart. coord. in units 2pi/alat
        k(    1) = (   0.2500000   0.2500000   0.2500000), wk =   1.0000000

     Dense  grid:    36377 G-vectors     FFT dimensions: (  45,  45,  45)

     Smooth grid:     7075 G-vectors     FFT dimensions: (  24,  24,  24)

     Estimated max dynamical RAM per process >      41.71Mb
     Generating pointlists ...
     new r_m :   0.2062 (alat units)  1.9878 (a.u.) for type    1
     new r_m :   0.2062 (alat units)  1.9878 (a.u.) for type    2

     Check: negative/imaginary core charge=   -0.000023    0.000000

     Initial potential from superposition of free atoms

     starting charge   48.99908, renormalised to   49.00000
     Starting wfc are   40 randomized atomic wfcs
     Checking if some PAW data can be deallocated... 

     total cpu time spent up to now is        7.2 secs

     per-process dynamical memory:    39.2 Mb

     Self-consistent Calculation

     iteration #  1     ecut=    15.00 Ry     beta=0.70
     Davidson diagonalization with overlap
     ethr =  1.00E-02,  avg # of iterations =  2.0

     total cpu time spent up to now is       12.3 secs

     total energy              =    -857.03899668 Ry
     Harris-Foulkes estimate   =    -870.41458854 Ry
     estimated scf accuracy    <      16.22608277 Ry

     total magnetization       =     0.96 Bohr mag/cell
     absolute magnetization    =     1.18 Bohr mag/cell

     iteration #  2     ecut=    15.00 Ry     beta=0.70
     Davidson diagonalization with overlap
     ethr =  1.00E-02,  avg # of iterations =  3.0

     total cpu time spent up to now is       17.4 secs

     total energy              =    -865.15843068 Ry
     Harris-Foulkes estimate   =    -873.08591839 Ry
     estimated scf accuracy    <      14.42527719 Ry

     total magnetization       =     0.07 Bohr mag/cell
     absolute magnetization    =     0.24 Bohr mag/cell

     iteration #  3     ecut=    15.00 Ry     beta=0.70
     Davidson diagonalization with overlap
     ethr =  1.00E-02,  avg # of iterations =  3.0

     total cpu time spent up to now is       22.6 secs

     total energy              =    -866.70219187 Ry
     Harris-Foulkes estimate   =    -868.58213829 Ry
     estimated scf accuracy    <       5.77070423 Ry

     total magnetization       =     0.25 Bohr mag/cell
     absolute magnetization    =     0.33 Bohr mag/cell

     iteration #  4     ecut=    15.00 Ry     beta=0.70
     Davidson diagonalization with overlap
     ethr =  1.00E-02,  avg # of iterations =  2.0

     total cpu time spent up to now is       27.7 secs

     total energy              =    -866.76936588 Ry
     Harris-Foulkes estimate   =    -867.28461193 Ry
     estimated scf accuracy    <       0.71431936 Ry

     total magnetization       =     0.77 Bohr mag/cell
     absolute magnetization    =     1.08 Bohr mag/cell

     iteration #  5     ecut=    15.00 Ry     beta=0.70
     Davidson diagonalization with overlap
     ethr =  1.46E-03,  avg # of iterations =  2.5

     total cpu time spent up to now is       32.8 secs

     total energy              =    -866.98187044 Ry
     Harris-Foulkes estimate   =    -867.00131580 Ry
     estimated scf accuracy    <       0.07139565 Ry

     total magnetization       =     0.88 Bohr mag/cell
     absolute magnetization    =     1.23 Bohr mag/cell

     iteration #  6     ecut=    15.00 Ry     beta=0.70
     Davidson diagonalization with overlap
     ethr =  1.46E-04,  avg # of iterations =  1.5

     total cpu time spent up to now is       37.8 secs

     total energy              =    -866.97728164 Ry
     Harris-Foulkes estimate   =    -866.98790973 Ry
     estimated scf accuracy    <       0.02354471 Ry

     total magnetization       =     0.87 Bohr mag/cell
     absolute magnetization    =     1.17 Bohr mag/cell

     iteration #  7     ecut=    15.00 Ry     beta=0.70
     Davidson diagonalization with overlap
     ethr =  4.81E-05,  avg # of iterations =  2.0

     total cpu time spent up to now is       42.9 secs

     total energy              =    -866.97928263 Ry
     Harris-Foulkes estimate   =    -866.98019882 Ry
     estimated scf accuracy    <       0.00206739 Ry

     total magnetization       =     0.86 Bohr mag/cell
     absolute magnetization    =     1.15 Bohr mag/cell

     iteration #  8     ecut=    15.00 Ry     beta=0.70
     Davidson diagonalization with overlap
     ethr =  4.22E-06,  avg # of iterations =  3.0

     total cpu time spent up to now is       48.0 secs

     total energy              =    -866.97950458 Ry
     Harris-Foulkes estimate   =    -866.97955205 Ry
     estimated scf accuracy    <       0.00019641 Ry

     total magnetization       =     0.85 Bohr mag/cell
     absolute magnetization    =     1.13 Bohr mag/cell

     iteration #  9     ecut=    15.00 Ry     beta=0.70
     Davidson diagonalization with overlap
     ethr =  4.01E-07,  avg # of iterations =  2.0

     total cpu time spent up to now is       53.1 secs

     total energy              =    -866.97952594 Ry
     Harris-Foulkes estimate   =    -866.97952625 Ry
     estimated scf accuracy    <       0.00003913 Ry

     total magnetization       =     0.84 Bohr mag/cell
     absolute magnetization    =     1.11 Bohr mag/cell

     iteration # 10     ecut=    15.00 Ry     beta=0.70
     Davidson diagonalization with overlap
     ethr =  7.98E-08,  avg # of iterations =  3.0

     total cpu time spent up to now is       58.1 secs

     total energy              =    -866.97953703 Ry
     Harris-Foulkes estimate   =    -866.97955168 Ry
     estimated scf accuracy    <       0.00002235 Ry

     total magnetization       =     0.83 Bohr mag/cell
     absolute magnetization    =     1.08 Bohr mag/cell

     iteration # 11     ecut=    15.00 Ry     beta=0.70
     Davidson diagonalization with overlap
     ethr =  4.56E-08,  avg # of iterations =  3.0

     total cpu time spent up to now is       63.2 secs

     total energy              =    -866.97955108 Ry
     Harris-Foulkes estimate   =    -866.97955137 Ry
     estimated scf accuracy    <       0.00000091 Ry

     total magnetization       =     0.82 Bohr mag/cell
     absolute magnetization    =     1.06 Bohr mag/cell

     iteration # 12     ecut=    15.00 Ry     beta=0.70
     Davidson diagonalization with overlap
     ethr =  1.86E-09,  avg # of iterations =  3.0

     total cpu time spent up to now is       68.3 secs

     total energy              =    -866.97955259 Ry
     Harris-Foulkes estimate   =    -866.97955251 Ry
     estimated scf accuracy    <       0.00000011 Ry

     total magnetization       =     0.81 Bohr mag/cell
     absolute magnetization    =     1.05 Bohr mag/cell

     iteration # 13     ecut=    15.00 Ry     beta=0.70
     Davidson diagonalization with overlap
     ethr =  2.33E-10,  avg # of iterations =  3.0

     Magnetic moment per site:
     atom:    1    charge:    9.8535    magn:   -0.0082    constr:    0.0000
     atom:    2    charge:    9.8528    magn:   -0.0082    constr:    0.0000
     atom:    3    charge:    9.8528    magn:   -0.0082    constr:    0.0000
     atom:    4    charge:    9.8582    magn:    0.1135    constr:    0.0000
     atom:    5    charge:    4.5678    magn:    0.5592    constr:    0.0000

     total cpu time spent up to now is       73.4 secs

     End of self-consistent calculation

 ------ SPIN UP ------------


          k = 0.2500 0.2500 0.2500 (   886 PWs)   bands (ev):

   -12.4866  -3.3153  -3.3152  -3.1227  -2.9070  -2.9020  -2.9019  -2.8113
    -2.8112  -2.7137  -2.5233  -2.5233  -2.4996  -2.3926  -2.3925  -2.3534
    -2.1811  -2.1811  -2.0232  -1.8635  -1.8635  -0.5207   0.2573   0.2575
     1.7240   3.2256   4.1207   4.1209   5.8332   5.8334

 ------ SPIN DOWN ----------


          k = 0.2500 0.2500 0.2500 (   886 PWs)   bands (ev):

   -11.5997  -3.2587  -3.2586  -3.1027  -2.8484  -2.8484  -2.8300  -2.7831
    -2.7830  -2.7229  -2.5041  -2.5041  -2.4720  -2.3952  -2.3952  -2.3537
    -2.1693  -2.1693  -2.0318  -1.8499  -1.8498  -0.3242   0.6754   0.6754
     2.2271   3.3936   4.3872   4.3874   5.8675   5.8677

     the Fermi energy is     1.9756 ev

!    total energy              =    -866.97955271 Ry
     Harris-Foulkes estimate   =    -866.97955268 Ry
     estimated scf accuracy    <       0.00000001 Ry

     total all-electron energy =    -13335.797415 Ry

     The total energy is the sum of the following terms:

     one-electron contribution =    -238.01897048 Ry
     hartree contribution      =     163.76012375 Ry
     xc contribution           =    -176.12816576 Ry
     ewald contribution        =    -250.04933580 Ry
     one-center paw contrib.   =    -366.53840435 Ry
     smearing contrib. (-TS)   =      -0.00480006 Ry

     total magnetization       =     0.81 Bohr mag/cell
     absolute magnetization    =     1.05 Bohr mag/cell

     convergence has been achieved in  13 iterations

     Writing output data file Cu3N.save

     init_run     :      5.66s CPU      6.45s WALL (       1 calls)
     electrons    :     62.30s CPU     66.24s WALL (       1 calls)

     Called by init_run:
     wfcinit      :      0.12s CPU      0.13s WALL (       1 calls)
     potinit      :      3.88s CPU      4.38s WALL (       1 calls)

     Called by electrons:
     c_bands      :      3.55s CPU      3.62s WALL (      13 calls)
     sum_band     :      4.78s CPU      6.64s WALL (      13 calls)
     v_of_rho     :      3.84s CPU      3.97s WALL (      14 calls)
     newd         :      5.22s CPU      7.27s WALL (      14 calls)
     PAW_pot      :     48.81s CPU     49.26s WALL (      14 calls)
     mix_rho      :      0.16s CPU      0.17s WALL (      13 calls)

     Called by c_bands:
     init_us_2    :      0.05s CPU      0.04s WALL (      54 calls)
     cegterg      :      3.45s CPU      3.50s WALL (      26 calls)

     Called by sum_band:
     sum_band:bec :      0.00s CPU      0.00s WALL (      26 calls)
     addusdens    :      4.03s CPU      5.95s WALL (      13 calls)

     Called by *egterg:
     h_psi        :      1.80s CPU      1.95s WALL (      94 calls)
     s_psi        :      0.36s CPU      0.40s WALL (      94 calls)
     g_psi        :      0.00s CPU      0.01s WALL (      66 calls)
     cdiaghg      :      0.41s CPU      0.33s WALL (      92 calls)

     Called by h_psi:
     h_psi:pot    :      1.78s CPU      1.94s WALL (      94 calls)
     h_psi:calbec :      0.30s CPU      0.40s WALL (      94 calls)
     vloc_psi     :      1.06s CPU      1.14s WALL (      94 calls)
     add_vuspsi   :      0.42s CPU      0.40s WALL (      94 calls)

     General routines
     calbec       :      0.42s CPU      0.55s WALL (     120 calls)
     fft          :      1.11s CPU      0.99s WALL (     424 calls)
     ffts         :      0.02s CPU      0.02s WALL (      54 calls)
     fftw         :      1.03s CPU      1.08s WALL (    4830 calls)
     interpolate  :      0.19s CPU      0.16s WALL (      54 calls)
     davcio       :      0.00s CPU      0.03s WALL (       2 calls)

     Parallel routines
     fft_scatter  :      0.27s CPU      0.16s WALL (    5308 calls)

     PWSCF        :  1m 8.66s CPU     1m13.64s WALL


   This run was terminated on:  19:41:32  11Feb2020            

=------------------------------------------------------------------------------=
   JOB DONE.
=------------------------------------------------------------------------------=
