### Running on host: LAPTOP-ORQA1H22

     Program PWSCF v.6.0 (svn rev. 13079) starts on 11Feb2020 at 19:41:33 

     This program is part of the open-source Quantum ESPRESSO suite
     for quantum simulation of materials; please cite
         "P. Giannozzi et al., J. Phys.:Condens. Matter 21 395502 (2009);
          URL http://www.quantum-espresso.org", 
     in publications or presentations arising from this work. More details at
     http://www.quantum-espresso.org/quote

     Parallel version (MPI), running on     1 processors
     Reading input from pw.20*12.in

     Current dimensions of program PWSCF are:
     Max number of different atomic species (ntypx) = 10
     Max number of k-points (npk) =  40000
     Max angular momentum in pseudopotentials (lmaxx) =  3
               file Cu.pbe-dn-kjpaw_psl.1.0.0.UPF: wavefunction(s)  4S 3D renormalized
               file N.pbe-n-kjpaw_psl.1.0.0.UPF: wavefunction(s)  2S renormalized

     Subspace diagonalization in iterative solution of the eigenvalue problem:
     a serial algorithm will be used


     G-vector sticks info
     --------------------
     sticks:   dense  smooth     PW     G-vecs:    dense   smooth      PW
     Sum        1765     593    177                56115    10827    1647



     bravais-lattice index     =            0
     lattice parameter (alat)  =       9.6376  a.u.
     unit-cell volume          =     895.1733 (a.u.)^3
     number of atoms/cell      =            5
     number of atomic types    =            2
     number of electrons       =        49.00
     number of Kohn-Sham states=           30
     kinetic-energy cutoff     =      20.0000  Ry
     charge density cutoff     =     240.0000  Ry
     convergence threshold     =      1.0E-07
     mixing beta               =       0.7000
     number of iterations used =            8  plain     mixing
     Exchange-correlation      =  SLA  PW   PBX  PBC ( 1  4  3  4 0 0)

     celldm(1)=   9.637603  celldm(2)=   0.000000  celldm(3)=   0.000000
     celldm(4)=   0.000000  celldm(5)=   0.000000  celldm(6)=   0.000000

     crystal axes: (cart. coord. in units of alat)
               a(1) = (   1.000000   0.000000   0.000000 )  
               a(2) = (   0.000000   1.000000   0.000000 )  
               a(3) = (   0.000000   0.000000   1.000000 )  

     reciprocal axes: (cart. coord. in units 2 pi/alat)
               b(1) = (  1.000000  0.000000  0.000000 )  
               b(2) = (  0.000000  1.000000  0.000000 )  
               b(3) = (  0.000000  0.000000  1.000000 )  


     PseudoPot. # 1 for Cu read from file:
     ../pseudo/Cu.pbe-dn-kjpaw_psl.1.0.0.UPF
     MD5 check sum: cfffd1f38ee05704b3e17f46f1730a6f
     Pseudo is Projector augmented-wave + core cor, Zval = 11.0
     Generated using "atomic" code by A. Dal Corso  v.6.3
     Shape of augmentation charge: PSQ
     Using radial grid of 1199 points,  6 beta functions with: 
                l(1) =   0
                l(2) =   0
                l(3) =   1
                l(4) =   1
                l(5) =   2
                l(6) =   2
     Q(r) pseudized with 0 coefficients 


     PseudoPot. # 2 for  N read from file:
     ../pseudo/N.pbe-n-kjpaw_psl.1.0.0.UPF
     MD5 check sum: 14c48229446f9f2d411169a3abcbc3fa
     Pseudo is Projector augmented-wave + core cor, Zval =  5.0
     Generated using "atomic" code by A. Dal Corso  v.6.3
     Shape of augmentation charge: PSQ
     Using radial grid of 1085 points,  4 beta functions with: 
                l(1) =   0
                l(2) =   0
                l(3) =   1
                l(4) =   1
     Q(r) pseudized with 0 coefficients 


     atomic species   valence    mass     pseudopotential
        Cu            11.00     1.00000     Cu( 1.00)
        N              5.00     1.00000      N( 1.00)

     Starting magnetic structure 
     atomic species   magnetization
        Cu           0.000
        N            0.500

     48 Sym. Ops., with inversion, found (32 have fractional translation)



   Cartesian axes

     site n.     atom                  positions (alat units)
         1           Cu  tau(   1) = (   0.0000000   0.0000000   0.0000000  )
         2           Cu  tau(   2) = (   0.5000000   0.5000000   0.0000000  )
         3           Cu  tau(   3) = (   0.0000000   0.5000000   0.5000000  )
         4           Cu  tau(   4) = (   0.5000000   0.0000000   0.5000000  )
         5           N   tau(   5) = (   0.0000000   0.5000000   1.0000000  )

     number of k points=     1  gaussian smearing, width (Ry)=  0.0200
                       cart. coord. in units 2pi/alat
        k(    1) = (   0.2500000   0.2500000   0.2500000), wk =   1.0000000

     Dense  grid:    56115 G-vectors     FFT dimensions: (  48,  48,  48)

     Smooth grid:    10827 G-vectors     FFT dimensions: (  27,  27,  27)

     Estimated max dynamical RAM per process >      60.86Mb
     Generating pointlists ...
     new r_m :   0.2062 (alat units)  1.9878 (a.u.) for type    1
     new r_m :   0.2062 (alat units)  1.9878 (a.u.) for type    2

     Check: negative/imaginary core charge=   -0.000006    0.000000

     Initial potential from superposition of free atoms

     starting charge   48.99908, renormalised to   49.00000
     Starting wfc are   40 randomized atomic wfcs
     Checking if some PAW data can be deallocated... 

     total cpu time spent up to now is        7.7 secs

     per-process dynamical memory:    47.9 Mb

     Self-consistent Calculation

     iteration #  1     ecut=    20.00 Ry     beta=0.70
     Davidson diagonalization with overlap
     ethr =  1.00E-02,  avg # of iterations =  2.0

     total cpu time spent up to now is       13.8 secs

     total energy              =    -876.37081093 Ry
     Harris-Foulkes estimate   =    -877.18069861 Ry
     estimated scf accuracy    <       1.21544634 Ry

     total magnetization       =     0.98 Bohr mag/cell
     absolute magnetization    =     1.74 Bohr mag/cell

     iteration #  2     ecut=    20.00 Ry     beta=0.70
     Davidson diagonalization with overlap
     ethr =  2.48E-03,  avg # of iterations =  3.0

     total cpu time spent up to now is       20.1 secs

     total energy              =    -876.23677605 Ry
     Harris-Foulkes estimate   =    -877.79036702 Ry
     estimated scf accuracy    <       4.02051271 Ry

     total magnetization       =     0.49 Bohr mag/cell
     absolute magnetization    =     0.86 Bohr mag/cell

     iteration #  3     ecut=    20.00 Ry     beta=0.70
     Davidson diagonalization with overlap
     ethr =  2.48E-03,  avg # of iterations =  2.5

     total cpu time spent up to now is       26.3 secs

     total energy              =    -876.85729349 Ry
     Harris-Foulkes estimate   =    -877.16885675 Ry
     estimated scf accuracy    <       1.12087790 Ry

     total magnetization       =     0.85 Bohr mag/cell
     absolute magnetization    =     1.06 Bohr mag/cell

     iteration #  4     ecut=    20.00 Ry     beta=0.70
     Davidson diagonalization with overlap
     ethr =  2.29E-03,  avg # of iterations =  2.0

     total cpu time spent up to now is       32.3 secs

     total energy              =    -876.98395307 Ry
     Harris-Foulkes estimate   =    -876.98601753 Ry
     estimated scf accuracy    <       0.01604587 Ry

     total magnetization       =     0.93 Bohr mag/cell
     absolute magnetization    =     1.35 Bohr mag/cell

     iteration #  5     ecut=    20.00 Ry     beta=0.70
     Davidson diagonalization with overlap
     ethr =  3.27E-05,  avg # of iterations =  3.0

     total cpu time spent up to now is       38.4 secs

     total energy              =    -876.98888027 Ry
     Harris-Foulkes estimate   =    -876.99308756 Ry
     estimated scf accuracy    <       0.01205759 Ry

     total magnetization       =     0.86 Bohr mag/cell
     absolute magnetization    =     1.23 Bohr mag/cell

     iteration #  6     ecut=    20.00 Ry     beta=0.70
     Davidson diagonalization with overlap
     ethr =  2.46E-05,  avg # of iterations =  2.0

     total cpu time spent up to now is       44.4 secs

     total energy              =    -876.99065254 Ry
     Harris-Foulkes estimate   =    -876.99132172 Ry
     estimated scf accuracy    <       0.00315949 Ry

     total magnetization       =     0.83 Bohr mag/cell
     absolute magnetization    =     1.17 Bohr mag/cell

     iteration #  7     ecut=    20.00 Ry     beta=0.70
     Davidson diagonalization with overlap
     ethr =  6.45E-06,  avg # of iterations =  1.5

     total cpu time spent up to now is       50.3 secs

     total energy              =    -876.99116332 Ry
     Harris-Foulkes estimate   =    -876.99097539 Ry
     estimated scf accuracy    <       0.00032256 Ry

     total magnetization       =     0.82 Bohr mag/cell
     absolute magnetization    =     1.14 Bohr mag/cell

     iteration #  8     ecut=    20.00 Ry     beta=0.70
     Davidson diagonalization with overlap
     ethr =  6.58E-07,  avg # of iterations =  3.0

     total cpu time spent up to now is       56.3 secs

     total energy              =    -876.99148755 Ry
     Harris-Foulkes estimate   =    -876.99143197 Ry
     estimated scf accuracy    <       0.00006209 Ry

     total magnetization       =     0.77 Bohr mag/cell
     absolute magnetization    =     1.04 Bohr mag/cell

     iteration #  9     ecut=    20.00 Ry     beta=0.70
     Davidson diagonalization with overlap
     ethr =  1.27E-07,  avg # of iterations =  3.0

     total cpu time spent up to now is       62.3 secs

     total energy              =    -876.99155379 Ry
     Harris-Foulkes estimate   =    -876.99166291 Ry
     estimated scf accuracy    <       0.00010305 Ry

     total magnetization       =     0.72 Bohr mag/cell
     absolute magnetization    =     0.95 Bohr mag/cell

     iteration # 10     ecut=    20.00 Ry     beta=0.70
     Davidson diagonalization with overlap
     ethr =  1.27E-07,  avg # of iterations =  3.5

     total cpu time spent up to now is       68.6 secs

     total energy              =    -876.99172507 Ry
     Harris-Foulkes estimate   =    -876.99175947 Ry
     estimated scf accuracy    <       0.00000765 Ry

     total magnetization       =     0.65 Bohr mag/cell
     absolute magnetization    =     0.83 Bohr mag/cell

     iteration # 11     ecut=    20.00 Ry     beta=0.70
     Davidson diagonalization with overlap
     ethr =  1.56E-08,  avg # of iterations =  3.5

     total cpu time spent up to now is       74.9 secs

     total energy              =    -876.99178897 Ry
     Harris-Foulkes estimate   =    -876.99179280 Ry
     estimated scf accuracy    <       0.00000094 Ry

     total magnetization       =     0.60 Bohr mag/cell
     absolute magnetization    =     0.76 Bohr mag/cell

     iteration # 12     ecut=    20.00 Ry     beta=0.70
     Davidson diagonalization with overlap
     ethr =  1.92E-09,  avg # of iterations =  4.0

     total cpu time spent up to now is       81.0 secs

     total energy              =    -876.99180521 Ry
     Harris-Foulkes estimate   =    -876.99180498 Ry
     estimated scf accuracy    <       0.00000026 Ry

     total magnetization       =     0.57 Bohr mag/cell
     absolute magnetization    =     0.72 Bohr mag/cell

     iteration # 13     ecut=    20.00 Ry     beta=0.70
     Davidson diagonalization with overlap
     ethr =  5.29E-10,  avg # of iterations =  4.0

     total cpu time spent up to now is       87.4 secs

     total energy              =    -876.99180876 Ry
     Harris-Foulkes estimate   =    -876.99180878 Ry
     estimated scf accuracy    <       0.00000114 Ry

     total magnetization       =     0.55 Bohr mag/cell
     absolute magnetization    =     0.70 Bohr mag/cell

     iteration # 14     ecut=    20.00 Ry     beta=0.70
     Davidson diagonalization with overlap
     ethr =  5.29E-10,  avg # of iterations =  3.0

     Magnetic moment per site:
     atom:    1    charge:    9.6151    magn:    0.0232    constr:    0.0000
     atom:    2    charge:    9.6151    magn:    0.0232    constr:    0.0000
     atom:    3    charge:    9.6151    magn:    0.0232    constr:    0.0000
     atom:    4    charge:    9.6498    magn:    0.0513    constr:    0.0000
     atom:    5    charge:    4.6827    magn:    0.3481    constr:    0.0000

     total cpu time spent up to now is       93.6 secs

     End of self-consistent calculation

 ------ SPIN UP ------------


          k = 0.2500 0.2500 0.2500 (  1346 PWs)   bands (ev):

   -10.9744  -0.8730  -0.7591  -0.7591  -0.3445  -0.2160  -0.2160  -0.1627
    -0.1411  -0.1411  -0.0816  -0.0816  -0.0754  -0.0371  -0.0371  -0.0287
     0.0482   0.0482   0.0612   0.0612   0.0814   0.1966   0.9144   0.9144
     2.1775   3.5101   4.2426   4.2426   5.9821   5.9821

 ------ SPIN DOWN ----------


          k = 0.2500 0.2500 0.2500 (  1346 PWs)   bands (ev):

   -10.4263  -0.7260  -0.6078  -0.6078  -0.2941  -0.1783  -0.1783  -0.1239
    -0.1154  -0.1154  -0.0583  -0.0583  -0.0391  -0.0179  -0.0179  -0.0138
     0.0712   0.0712   0.0868   0.0868   0.0984   0.2407   1.0855   1.0855
     2.4666   3.6076   4.4117   4.4117   6.0142   6.0142

     the Fermi energy is     2.3220 ev

!    total energy              =    -876.99180985 Ry
     Harris-Foulkes estimate   =    -876.99180961 Ry
     estimated scf accuracy    <          7.8E-09 Ry

     total all-electron energy =    -13345.809672 Ry

     The total energy is the sum of the following terms:

     one-electron contribution =    -260.30256274 Ry
     hartree contribution      =     181.31008164 Ry
     xc contribution           =    -181.19124923 Ry
     ewald contribution        =    -250.04933580 Ry
     one-center paw contrib.   =    -366.75023357 Ry
     smearing contrib. (-TS)   =      -0.00851015 Ry

     total magnetization       =     0.55 Bohr mag/cell
     absolute magnetization    =     0.69 Bohr mag/cell

     convergence has been achieved in  14 iterations

     Writing output data file Cu3N.save

     init_run     :      6.22s CPU      6.93s WALL (       1 calls)
     electrons    :     79.69s CPU     85.87s WALL (       1 calls)

     Called by init_run:
     wfcinit      :      0.20s CPU      0.21s WALL (       1 calls)
     potinit      :      3.94s CPU      4.28s WALL (       1 calls)

     Called by electrons:
     c_bands      :      6.72s CPU      6.80s WALL (      14 calls)
     sum_band     :      9.61s CPU     12.57s WALL (      14 calls)
     v_of_rho     :      5.05s CPU      5.15s WALL (      15 calls)
     newd         :      9.06s CPU     12.19s WALL (      15 calls)
     PAW_pot      :     53.30s CPU     53.73s WALL (      15 calls)
     mix_rho      :      0.22s CPU      0.22s WALL (      14 calls)

     Called by c_bands:
     init_us_2    :      0.05s CPU      0.06s WALL (      58 calls)
     cegterg      :      6.58s CPU      6.62s WALL (      28 calls)

     Called by sum_band:
     sum_band:bec :      0.00s CPU      0.00s WALL (      28 calls)
     addusdens    :      7.53s CPU     10.52s WALL (      14 calls)

     Called by *egterg:
     h_psi        :      3.78s CPU      3.92s WALL (     110 calls)
     s_psi        :      0.75s CPU      0.71s WALL (     110 calls)
     g_psi        :      0.03s CPU      0.01s WALL (      80 calls)
     cdiaghg      :      0.52s CPU      0.44s WALL (     108 calls)

     Called by h_psi:
     h_psi:pot    :      3.78s CPU      3.91s WALL (     110 calls)
     h_psi:calbec :      0.77s CPU      0.70s WALL (     110 calls)
     vloc_psi     :      2.38s CPU      2.50s WALL (     110 calls)
     add_vuspsi   :      0.64s CPU      0.70s WALL (     110 calls)

     General routines
     calbec       :      1.05s CPU      0.95s WALL (     138 calls)
     fft          :      1.14s CPU      1.09s WALL (     455 calls)
     ffts         :      0.05s CPU      0.04s WALL (      58 calls)
     fftw         :      2.41s CPU      2.53s WALL (    5470 calls)
     interpolate  :      0.25s CPU      0.19s WALL (      58 calls)
     davcio       :      0.00s CPU      0.01s WALL (       2 calls)

     Parallel routines
     fft_scatter  :      0.30s CPU      0.35s WALL (    5983 calls)

     PWSCF        :  1m26.73s CPU     1m33.80s WALL


   This run was terminated on:  19:43: 7  11Feb2020            

=------------------------------------------------------------------------------=
   JOB DONE.
=------------------------------------------------------------------------------=
