### Running on host: LAPTOP-ORQA1H22

     Program PWSCF v.6.0 (svn rev. 13079) starts on 11Feb2020 at 19:29:26 

     This program is part of the open-source Quantum ESPRESSO suite
     for quantum simulation of materials; please cite
         "P. Giannozzi et al., J. Phys.:Condens. Matter 21 395502 (2009);
          URL http://www.quantum-espresso.org", 
     in publications or presentations arising from this work. More details at
     http://www.quantum-espresso.org/quote

     Parallel version (MPI), running on     1 processors
     Reading input from pw.20*4.in

     Current dimensions of program PWSCF are:
     Max number of different atomic species (ntypx) = 10
     Max number of k-points (npk) =  40000
     Max angular momentum in pseudopotentials (lmaxx) =  3
               file Cu.pbe-dn-kjpaw_psl.1.0.0.UPF: wavefunction(s)  4S 3D renormalized
               file N.pbe-n-kjpaw_psl.1.0.0.UPF: wavefunction(s)  2S renormalized

     Subspace diagonalization in iterative solution of the eigenvalue problem:
     a serial algorithm will be used


     G-vector sticks info
     --------------------
     sticks:   dense  smooth     PW     G-vecs:    dense   smooth      PW
     Sum         593     593    177                10827    10827    1647



     bravais-lattice index     =            0
     lattice parameter (alat)  =       9.6376  a.u.
     unit-cell volume          =     895.1733 (a.u.)^3
     number of atoms/cell      =            5
     number of atomic types    =            2
     number of electrons       =        49.00
     number of Kohn-Sham states=           30
     kinetic-energy cutoff     =      20.0000  Ry
     charge density cutoff     =      80.0000  Ry
     convergence threshold     =      1.0E-07
     mixing beta               =       0.7000
     number of iterations used =            8  plain     mixing
     Exchange-correlation      =  SLA  PW   PBX  PBC ( 1  4  3  4 0 0)

     celldm(1)=   9.637603  celldm(2)=   0.000000  celldm(3)=   0.000000
     celldm(4)=   0.000000  celldm(5)=   0.000000  celldm(6)=   0.000000

     crystal axes: (cart. coord. in units of alat)
               a(1) = (   1.000000   0.000000   0.000000 )  
               a(2) = (   0.000000   1.000000   0.000000 )  
               a(3) = (   0.000000   0.000000   1.000000 )  

     reciprocal axes: (cart. coord. in units 2 pi/alat)
               b(1) = (  1.000000  0.000000  0.000000 )  
               b(2) = (  0.000000  1.000000  0.000000 )  
               b(3) = (  0.000000  0.000000  1.000000 )  


     PseudoPot. # 1 for Cu read from file:
     ../pseudo/Cu.pbe-dn-kjpaw_psl.1.0.0.UPF
     MD5 check sum: cfffd1f38ee05704b3e17f46f1730a6f
     Pseudo is Projector augmented-wave + core cor, Zval = 11.0
     Generated using "atomic" code by A. Dal Corso  v.6.3
     Shape of augmentation charge: PSQ
     Using radial grid of 1199 points,  6 beta functions with: 
                l(1) =   0
                l(2) =   0
                l(3) =   1
                l(4) =   1
                l(5) =   2
                l(6) =   2
     Q(r) pseudized with 0 coefficients 


     PseudoPot. # 2 for  N read from file:
     ../pseudo/N.pbe-n-kjpaw_psl.1.0.0.UPF
     MD5 check sum: 14c48229446f9f2d411169a3abcbc3fa
     Pseudo is Projector augmented-wave + core cor, Zval =  5.0
     Generated using "atomic" code by A. Dal Corso  v.6.3
     Shape of augmentation charge: PSQ
     Using radial grid of 1085 points,  4 beta functions with: 
                l(1) =   0
                l(2) =   0
                l(3) =   1
                l(4) =   1
     Q(r) pseudized with 0 coefficients 


     atomic species   valence    mass     pseudopotential
        Cu            11.00     1.00000     Cu( 1.00)
        N              5.00     1.00000      N( 1.00)

     Starting magnetic structure 
     atomic species   magnetization
        Cu           0.000
        N            0.500

     16 Sym. Ops., with inversion, found
          (note: 32 additional sym.ops. were found but ignored
           their fractional translations are incommensurate with FFT grid)


   Cartesian axes

     site n.     atom                  positions (alat units)
         1           Cu  tau(   1) = (   0.0000000   0.0000000   0.0000000  )
         2           Cu  tau(   2) = (   0.5000000   0.5000000   0.0000000  )
         3           Cu  tau(   3) = (   0.0000000   0.5000000   0.5000000  )
         4           Cu  tau(   4) = (   0.5000000   0.0000000   0.5000000  )
         5           N   tau(   5) = (   0.0000000   0.5000000   1.0000000  )

     number of k points=     1  gaussian smearing, width (Ry)=  0.0200
                       cart. coord. in units 2pi/alat
        k(    1) = (   0.2500000   0.2500000   0.2500000), wk =   1.0000000

     Dense  grid:    10827 G-vectors     FFT dimensions: (  27,  27,  27)

     Estimated max dynamical RAM per process >      18.84Mb
     Generating pointlists ...
     new r_m :   0.2062 (alat units)  1.9878 (a.u.) for type    1
     new r_m :   0.2062 (alat units)  1.9878 (a.u.) for type    2

     Check: negative/imaginary core charge=   -0.000306    0.000000

     Initial potential from superposition of free atoms

     starting charge   48.99908, renormalised to   49.00000
     Starting wfc are   40 randomized atomic wfcs
     Checking if some PAW data can be deallocated... 

     total cpu time spent up to now is        6.5 secs

     per-process dynamical memory:    26.6 Mb

     Self-consistent Calculation

     iteration #  1     ecut=    20.00 Ry     beta=0.70
     Davidson diagonalization with overlap
     ethr =  1.00E-02,  avg # of iterations =  2.0

     total cpu time spent up to now is       10.8 secs

     total energy              =    -876.45937240 Ry
     Harris-Foulkes estimate   =    -877.21409671 Ry
     estimated scf accuracy    <       1.15108129 Ry

     total magnetization       =     0.98 Bohr mag/cell
     absolute magnetization    =     1.79 Bohr mag/cell

     iteration #  2     ecut=    20.00 Ry     beta=0.70
     Davidson diagonalization with overlap
     ethr =  2.35E-03,  avg # of iterations =  2.5

     total cpu time spent up to now is       15.1 secs

     total energy              =    -876.35220402 Ry
     Harris-Foulkes estimate   =    -877.73856387 Ry
     estimated scf accuracy    <       3.50680935 Ry

     total magnetization       =     0.63 Bohr mag/cell
     absolute magnetization    =     1.05 Bohr mag/cell

     iteration #  3     ecut=    20.00 Ry     beta=0.70
     Davidson diagonalization with overlap
     ethr =  2.35E-03,  avg # of iterations =  2.5

     total cpu time spent up to now is       19.4 secs

     total energy              =    -876.90834750 Ry
     Harris-Foulkes estimate   =    -877.19914937 Ry
     estimated scf accuracy    <       1.05211195 Ry

     total magnetization       =     0.90 Bohr mag/cell
     absolute magnetization    =     1.13 Bohr mag/cell

     iteration #  4     ecut=    20.00 Ry     beta=0.70
     Davidson diagonalization with overlap
     ethr =  2.15E-03,  avg # of iterations =  2.0

     total cpu time spent up to now is       23.7 secs

     total energy              =    -877.02728476 Ry
     Harris-Foulkes estimate   =    -877.02910082 Ry
     estimated scf accuracy    <       0.01537206 Ry

     total magnetization       =     0.95 Bohr mag/cell
     absolute magnetization    =     1.43 Bohr mag/cell

     iteration #  5     ecut=    20.00 Ry     beta=0.70
     Davidson diagonalization with overlap
     ethr =  3.14E-05,  avg # of iterations =  3.0

     total cpu time spent up to now is       28.1 secs

     total energy              =    -877.03188983 Ry
     Harris-Foulkes estimate   =    -877.03590271 Ry
     estimated scf accuracy    <       0.01141804 Ry

     total magnetization       =     0.90 Bohr mag/cell
     absolute magnetization    =     1.31 Bohr mag/cell

     iteration #  6     ecut=    20.00 Ry     beta=0.70
     Davidson diagonalization with overlap
     ethr =  2.33E-05,  avg # of iterations =  2.0

     total cpu time spent up to now is       32.3 secs

     total energy              =    -877.03360576 Ry
     Harris-Foulkes estimate   =    -877.03413998 Ry
     estimated scf accuracy    <       0.00267034 Ry

     total magnetization       =     0.88 Bohr mag/cell
     absolute magnetization    =     1.27 Bohr mag/cell

     iteration #  7     ecut=    20.00 Ry     beta=0.70
     Davidson diagonalization with overlap
     ethr =  5.45E-06,  avg # of iterations =  1.5

     total cpu time spent up to now is       36.5 secs

     total energy              =    -877.03410040 Ry
     Harris-Foulkes estimate   =    -877.03390502 Ry
     estimated scf accuracy    <       0.00023032 Ry

     total magnetization       =     0.88 Bohr mag/cell
     absolute magnetization    =     1.23 Bohr mag/cell

     iteration #  8     ecut=    20.00 Ry     beta=0.70
     Davidson diagonalization with overlap
     ethr =  4.70E-07,  avg # of iterations =  3.0

     total cpu time spent up to now is       40.9 secs

     total energy              =    -877.03440077 Ry
     Harris-Foulkes estimate   =    -877.03434883 Ry
     estimated scf accuracy    <       0.00005417 Ry

     total magnetization       =     0.84 Bohr mag/cell
     absolute magnetization    =     1.14 Bohr mag/cell

     iteration #  9     ecut=    20.00 Ry     beta=0.70
     Davidson diagonalization with overlap
     ethr =  1.11E-07,  avg # of iterations =  3.0

     total cpu time spent up to now is       45.3 secs

     total energy              =    -877.03453726 Ry
     Harris-Foulkes estimate   =    -877.03452610 Ry
     estimated scf accuracy    <       0.00008290 Ry

     total magnetization       =     0.80 Bohr mag/cell
     absolute magnetization    =     1.07 Bohr mag/cell

     iteration # 10     ecut=    20.00 Ry     beta=0.70
     Davidson diagonalization with overlap
     ethr =  1.11E-07,  avg # of iterations =  2.0

     total cpu time spent up to now is       49.6 secs

     total energy              =    -877.03452355 Ry
     Harris-Foulkes estimate   =    -877.03455697 Ry
     estimated scf accuracy    <       0.00004270 Ry

     total magnetization       =     0.78 Bohr mag/cell
     absolute magnetization    =     1.04 Bohr mag/cell

     iteration # 11     ecut=    20.00 Ry     beta=0.70
     Davidson diagonalization with overlap
     ethr =  8.71E-08,  avg # of iterations =  3.0

     total cpu time spent up to now is       54.0 secs

     total energy              =    -877.03459342 Ry
     Harris-Foulkes estimate   =    -877.03459784 Ry
     estimated scf accuracy    <       0.00000213 Ry

     total magnetization       =     0.75 Bohr mag/cell
     absolute magnetization    =     0.98 Bohr mag/cell

     iteration # 12     ecut=    20.00 Ry     beta=0.70
     Davidson diagonalization with overlap
     ethr =  4.34E-09,  avg # of iterations =  3.0

     total cpu time spent up to now is       58.4 secs

     total energy              =    -877.03460672 Ry
     Harris-Foulkes estimate   =    -877.03460670 Ry
     estimated scf accuracy    <       0.00000037 Ry

     total magnetization       =     0.73 Bohr mag/cell
     absolute magnetization    =     0.94 Bohr mag/cell

     iteration # 13     ecut=    20.00 Ry     beta=0.70
     Davidson diagonalization with overlap
     ethr =  7.50E-10,  avg # of iterations =  3.0

     total cpu time spent up to now is       62.8 secs

     total energy              =    -877.03460805 Ry
     Harris-Foulkes estimate   =    -877.03460836 Ry
     estimated scf accuracy    <       0.00000047 Ry

     total magnetization       =     0.72 Bohr mag/cell
     absolute magnetization    =     0.93 Bohr mag/cell

     iteration # 14     ecut=    20.00 Ry     beta=0.70
     Davidson diagonalization with overlap
     ethr =  7.50E-10,  avg # of iterations =  3.0

     Magnetic moment per site:
     atom:    1    charge:    9.6168    magn:    0.0340    constr:    0.0000
     atom:    2    charge:    9.6192    magn:    0.0326    constr:    0.0000
     atom:    3    charge:    9.6192    magn:    0.0326    constr:    0.0000
     atom:    4    charge:    9.6545    magn:    0.0683    constr:    0.0000
     atom:    5    charge:    4.6846    magn:    0.4591    constr:    0.0000

     total cpu time spent up to now is       67.1 secs

     End of self-consistent calculation

 ------ SPIN UP ------------


          k = 0.2500 0.2500 0.2500 (  1346 PWs)   bands (ev):

   -11.0740  -0.8373  -0.7424  -0.7251  -0.2860  -0.1866  -0.1812  -0.1209
    -0.0887  -0.0813  -0.0549  -0.0411  -0.0265   0.0040   0.0074   0.0147
     0.0840   0.0866   0.1144   0.1179   0.1256   0.2445   0.9383   0.9492
     2.1994   3.5708   4.3156   4.3212   6.0614   6.0638

 ------ SPIN DOWN ----------


          k = 0.2500 0.2500 0.2500 (  1346 PWs)   bands (ev):

   -10.3315  -0.6585  -0.5288  -0.5224  -0.1959  -0.0940  -0.0850  -0.0809
    -0.0626  -0.0602  -0.0505  -0.0285   0.0281   0.0328   0.0437   0.0674
     0.0694   0.1244   0.1304   0.1528   0.1587   0.2687   1.2011   1.2049
     2.6108   3.7065   4.5294   4.5362   6.0927   6.0975

     the Fermi energy is     2.4051 ev

!    total energy              =    -877.03460879 Ry
     Harris-Foulkes estimate   =    -877.03460878 Ry
     estimated scf accuracy    <       0.00000007 Ry

     total all-electron energy =    -13345.852471 Ry

     The total energy is the sum of the following terms:

     one-electron contribution =    -260.40201162 Ry
     hartree contribution      =     181.43040780 Ry
     xc contribution           =    -181.25778082 Ry
     ewald contribution        =    -250.04933581 Ry
     one-center paw contrib.   =    -366.74951547 Ry
     smearing contrib. (-TS)   =      -0.00637286 Ry

     total magnetization       =     0.71 Bohr mag/cell
     absolute magnetization    =     0.93 Bohr mag/cell

     convergence has been achieved in  14 iterations

     Writing output data file Cu3N.save

     init_run     :      4.80s CPU      5.63s WALL (       1 calls)
     electrons    :     60.34s CPU     60.56s WALL (       1 calls)

     Called by init_run:
     wfcinit      :      0.20s CPU      0.21s WALL (       1 calls)
     potinit      :      3.66s CPU      4.22s WALL (       1 calls)

     Called by electrons:
     c_bands      :      6.19s CPU      6.19s WALL (      14 calls)
     sum_band     :      2.00s CPU      2.08s WALL (      14 calls)
     v_of_rho     :      0.89s CPU      0.93s WALL (      15 calls)
     newd         :      1.72s CPU      1.77s WALL (      15 calls)
     PAW_pot      :     53.16s CPU     53.79s WALL (      15 calls)
     mix_rho      :      0.09s CPU      0.08s WALL (      14 calls)

     Called by c_bands:
     init_us_2    :      0.05s CPU      0.06s WALL (      58 calls)
     cegterg      :      6.06s CPU      6.01s WALL (      28 calls)

     Called by sum_band:
     sum_band:bec :      0.00s CPU      0.00s WALL (      28 calls)
     addusdens    :      1.28s CPU      1.32s WALL (      14 calls)

     Called by *egterg:
     h_psi        :      3.59s CPU      3.54s WALL (     101 calls)
     s_psi        :      0.69s CPU      0.67s WALL (     101 calls)
     g_psi        :      0.02s CPU      0.01s WALL (      71 calls)
     cdiaghg      :      0.45s CPU      0.38s WALL (      99 calls)

     Called by h_psi:
     h_psi:pot    :      3.59s CPU      3.53s WALL (     101 calls)
     h_psi:calbec :      0.75s CPU      0.67s WALL (     101 calls)
     vloc_psi     :      2.16s CPU      2.19s WALL (     101 calls)
     add_vuspsi   :      0.69s CPU      0.67s WALL (     101 calls)

     General routines
     calbec       :      0.97s CPU      0.92s WALL (     129 calls)
     fft          :      0.17s CPU      0.22s WALL (     371 calls)
     fftw         :      2.45s CPU      2.43s WALL (    5324 calls)
     davcio       :      0.00s CPU      0.01s WALL (       2 calls)

     Parallel routines
     fft_scatter  :      0.08s CPU      0.11s WALL (    5695 calls)

     PWSCF        :  1m 5.84s CPU     1m 7.26s WALL


   This run was terminated on:  19:30:33  11Feb2020            

=------------------------------------------------------------------------------=
   JOB DONE.
=------------------------------------------------------------------------------=
