### Running on host: LAPTOP-ORQA1H22

     Program PWSCF v.6.0 (svn rev. 13079) starts on 11Feb2020 at 19:34:51 

     This program is part of the open-source Quantum ESPRESSO suite
     for quantum simulation of materials; please cite
         "P. Giannozzi et al., J. Phys.:Condens. Matter 21 395502 (2009);
          URL http://www.quantum-espresso.org", 
     in publications or presentations arising from this work. More details at
     http://www.quantum-espresso.org/quote

     Parallel version (MPI), running on     1 processors
     Reading input from pw.20*8.in

     Current dimensions of program PWSCF are:
     Max number of different atomic species (ntypx) = 10
     Max number of k-points (npk) =  40000
     Max angular momentum in pseudopotentials (lmaxx) =  3
               file Cu.pbe-dn-kjpaw_psl.1.0.0.UPF: wavefunction(s)  4S 3D renormalized
               file N.pbe-n-kjpaw_psl.1.0.0.UPF: wavefunction(s)  2S renormalized

     Subspace diagonalization in iterative solution of the eigenvalue problem:
     a serial algorithm will be used


     G-vector sticks info
     --------------------
     sticks:   dense  smooth     PW     G-vecs:    dense   smooth      PW
     Sum        1185     593    177                30647    10827    1647



     bravais-lattice index     =            0
     lattice parameter (alat)  =       9.6376  a.u.
     unit-cell volume          =     895.1733 (a.u.)^3
     number of atoms/cell      =            5
     number of atomic types    =            2
     number of electrons       =        49.00
     number of Kohn-Sham states=           30
     kinetic-energy cutoff     =      20.0000  Ry
     charge density cutoff     =     160.0000  Ry
     convergence threshold     =      1.0E-07
     mixing beta               =       0.7000
     number of iterations used =            8  plain     mixing
     Exchange-correlation      =  SLA  PW   PBX  PBC ( 1  4  3  4 0 0)

     celldm(1)=   9.637603  celldm(2)=   0.000000  celldm(3)=   0.000000
     celldm(4)=   0.000000  celldm(5)=   0.000000  celldm(6)=   0.000000

     crystal axes: (cart. coord. in units of alat)
               a(1) = (   1.000000   0.000000   0.000000 )  
               a(2) = (   0.000000   1.000000   0.000000 )  
               a(3) = (   0.000000   0.000000   1.000000 )  

     reciprocal axes: (cart. coord. in units 2 pi/alat)
               b(1) = (  1.000000  0.000000  0.000000 )  
               b(2) = (  0.000000  1.000000  0.000000 )  
               b(3) = (  0.000000  0.000000  1.000000 )  


     PseudoPot. # 1 for Cu read from file:
     ../pseudo/Cu.pbe-dn-kjpaw_psl.1.0.0.UPF
     MD5 check sum: cfffd1f38ee05704b3e17f46f1730a6f
     Pseudo is Projector augmented-wave + core cor, Zval = 11.0
     Generated using "atomic" code by A. Dal Corso  v.6.3
     Shape of augmentation charge: PSQ
     Using radial grid of 1199 points,  6 beta functions with: 
                l(1) =   0
                l(2) =   0
                l(3) =   1
                l(4) =   1
                l(5) =   2
                l(6) =   2
     Q(r) pseudized with 0 coefficients 


     PseudoPot. # 2 for  N read from file:
     ../pseudo/N.pbe-n-kjpaw_psl.1.0.0.UPF
     MD5 check sum: 14c48229446f9f2d411169a3abcbc3fa
     Pseudo is Projector augmented-wave + core cor, Zval =  5.0
     Generated using "atomic" code by A. Dal Corso  v.6.3
     Shape of augmentation charge: PSQ
     Using radial grid of 1085 points,  4 beta functions with: 
                l(1) =   0
                l(2) =   0
                l(3) =   1
                l(4) =   1
     Q(r) pseudized with 0 coefficients 


     atomic species   valence    mass     pseudopotential
        Cu            11.00     1.00000     Cu( 1.00)
        N              5.00     1.00000      N( 1.00)

     Starting magnetic structure 
     atomic species   magnetization
        Cu           0.000
        N            0.500

     48 Sym. Ops., with inversion, found (32 have fractional translation)



   Cartesian axes

     site n.     atom                  positions (alat units)
         1           Cu  tau(   1) = (   0.0000000   0.0000000   0.0000000  )
         2           Cu  tau(   2) = (   0.5000000   0.5000000   0.0000000  )
         3           Cu  tau(   3) = (   0.0000000   0.5000000   0.5000000  )
         4           Cu  tau(   4) = (   0.5000000   0.0000000   0.5000000  )
         5           N   tau(   5) = (   0.0000000   0.5000000   1.0000000  )

     number of k points=     1  gaussian smearing, width (Ry)=  0.0200
                       cart. coord. in units 2pi/alat
        k(    1) = (   0.2500000   0.2500000   0.2500000), wk =   1.0000000

     Dense  grid:    30647 G-vectors     FFT dimensions: (  40,  40,  40)

     Smooth grid:    10827 G-vectors     FFT dimensions: (  27,  27,  27)

     Estimated max dynamical RAM per process >      37.71Mb
     Generating pointlists ...
     new r_m :   0.2062 (alat units)  1.9878 (a.u.) for type    1
     new r_m :   0.2062 (alat units)  1.9878 (a.u.) for type    2

     Check: negative/imaginary core charge=   -0.000024    0.000000

     Initial potential from superposition of free atoms

     starting charge   48.99908, renormalised to   49.00000
     Starting wfc are   40 randomized atomic wfcs
     Checking if some PAW data can be deallocated... 

     total cpu time spent up to now is        7.0 secs

     per-process dynamical memory:    42.2 Mb

     Self-consistent Calculation

     iteration #  1     ecut=    20.00 Ry     beta=0.70
     Davidson diagonalization with overlap
     ethr =  1.00E-02,  avg # of iterations =  2.0

     total cpu time spent up to now is       12.1 secs

     total energy              =    -876.37147974 Ry
     Harris-Foulkes estimate   =    -877.18115103 Ry
     estimated scf accuracy    <       1.21494130 Ry

     total magnetization       =     0.98 Bohr mag/cell
     absolute magnetization    =     1.74 Bohr mag/cell

     iteration #  2     ecut=    20.00 Ry     beta=0.70
     Davidson diagonalization with overlap
     ethr =  2.48E-03,  avg # of iterations =  3.0

     total cpu time spent up to now is       17.4 secs

     total energy              =    -876.23715453 Ry
     Harris-Foulkes estimate   =    -877.79006067 Ry
     estimated scf accuracy    <       4.01854766 Ry

     total magnetization       =     0.49 Bohr mag/cell
     absolute magnetization    =     0.86 Bohr mag/cell

     iteration #  3     ecut=    20.00 Ry     beta=0.70
     Davidson diagonalization with overlap
     ethr =  2.48E-03,  avg # of iterations =  2.5

     total cpu time spent up to now is       22.7 secs

     total energy              =    -876.85769153 Ry
     Harris-Foulkes estimate   =    -877.16885090 Ry
     estimated scf accuracy    <       1.11990731 Ry

     total magnetization       =     0.85 Bohr mag/cell
     absolute magnetization    =     1.06 Bohr mag/cell

     iteration #  4     ecut=    20.00 Ry     beta=0.70
     Davidson diagonalization with overlap
     ethr =  2.29E-03,  avg # of iterations =  2.0

     total cpu time spent up to now is       27.7 secs

     total energy              =    -876.98416944 Ry
     Harris-Foulkes estimate   =    -876.98624853 Ry
     estimated scf accuracy    <       0.01608746 Ry

     total magnetization       =     0.93 Bohr mag/cell
     absolute magnetization    =     1.36 Bohr mag/cell

     iteration #  5     ecut=    20.00 Ry     beta=0.70
     Davidson diagonalization with overlap
     ethr =  3.28E-05,  avg # of iterations =  3.0

     total cpu time spent up to now is       32.9 secs

     total energy              =    -876.98907083 Ry
     Harris-Foulkes estimate   =    -876.99327554 Ry
     estimated scf accuracy    <       0.01201950 Ry

     total magnetization       =     0.86 Bohr mag/cell
     absolute magnetization    =     1.23 Bohr mag/cell

     iteration #  6     ecut=    20.00 Ry     beta=0.70
     Davidson diagonalization with overlap
     ethr =  2.45E-05,  avg # of iterations =  2.0

     total cpu time spent up to now is       38.1 secs

     total energy              =    -876.99084687 Ry
     Harris-Foulkes estimate   =    -876.99151405 Ry
     estimated scf accuracy    <       0.00314827 Ry

     total magnetization       =     0.84 Bohr mag/cell
     absolute magnetization    =     1.18 Bohr mag/cell

     iteration #  7     ecut=    20.00 Ry     beta=0.70
     Davidson diagonalization with overlap
     ethr =  6.43E-06,  avg # of iterations =  1.5

     total cpu time spent up to now is       43.1 secs

     total energy              =    -876.99135857 Ry
     Harris-Foulkes estimate   =    -876.99116984 Ry
     estimated scf accuracy    <       0.00031911 Ry

     total magnetization       =     0.83 Bohr mag/cell
     absolute magnetization    =     1.14 Bohr mag/cell

     iteration #  8     ecut=    20.00 Ry     beta=0.70
     Davidson diagonalization with overlap
     ethr =  6.51E-07,  avg # of iterations =  3.0

     total cpu time spent up to now is       48.2 secs

     total energy              =    -876.99168071 Ry
     Harris-Foulkes estimate   =    -876.99162558 Ry
     estimated scf accuracy    <       0.00006170 Ry

     total magnetization       =     0.78 Bohr mag/cell
     absolute magnetization    =     1.04 Bohr mag/cell

     iteration #  9     ecut=    20.00 Ry     beta=0.70
     Davidson diagonalization with overlap
     ethr =  1.26E-07,  avg # of iterations =  3.0

     total cpu time spent up to now is       53.7 secs

     total energy              =    -876.99174984 Ry
     Harris-Foulkes estimate   =    -876.99185690 Ry
     estimated scf accuracy    <       0.00010199 Ry

     total magnetization       =     0.72 Bohr mag/cell
     absolute magnetization    =     0.95 Bohr mag/cell

     iteration # 10     ecut=    20.00 Ry     beta=0.70
     Davidson diagonalization with overlap
     ethr =  1.26E-07,  avg # of iterations =  3.5

     total cpu time spent up to now is       59.8 secs

     total energy              =    -876.99191837 Ry
     Harris-Foulkes estimate   =    -876.99195250 Ry
     estimated scf accuracy    <       0.00000737 Ry

     total magnetization       =     0.65 Bohr mag/cell
     absolute magnetization    =     0.83 Bohr mag/cell

     iteration # 11     ecut=    20.00 Ry     beta=0.70
     Davidson diagonalization with overlap
     ethr =  1.50E-08,  avg # of iterations =  3.5

     total cpu time spent up to now is       65.5 secs

     total energy              =    -876.99198154 Ry
     Harris-Foulkes estimate   =    -876.99198550 Ry
     estimated scf accuracy    <       0.00000093 Ry

     total magnetization       =     0.60 Bohr mag/cell
     absolute magnetization    =     0.76 Bohr mag/cell

     iteration # 12     ecut=    20.00 Ry     beta=0.70
     Davidson diagonalization with overlap
     ethr =  1.89E-09,  avg # of iterations =  4.0

     total cpu time spent up to now is       70.9 secs

     total energy              =    -876.99199769 Ry
     Harris-Foulkes estimate   =    -876.99199744 Ry
     estimated scf accuracy    <       0.00000026 Ry

     total magnetization       =     0.57 Bohr mag/cell
     absolute magnetization    =     0.72 Bohr mag/cell

     iteration # 13     ecut=    20.00 Ry     beta=0.70
     Davidson diagonalization with overlap
     ethr =  5.25E-10,  avg # of iterations =  4.0

     total cpu time spent up to now is       76.1 secs

     total energy              =    -876.99200114 Ry
     Harris-Foulkes estimate   =    -876.99200113 Ry
     estimated scf accuracy    <       0.00000113 Ry

     total magnetization       =     0.56 Bohr mag/cell
     absolute magnetization    =     0.70 Bohr mag/cell

     iteration # 14     ecut=    20.00 Ry     beta=0.70
     Davidson diagonalization with overlap
     ethr =  5.25E-10,  avg # of iterations =  3.0

     Magnetic moment per site:
     atom:    1    charge:    9.6157    magn:    0.0233    constr:    0.0000
     atom:    2    charge:    9.6157    magn:    0.0233    constr:    0.0000
     atom:    3    charge:    9.6157    magn:    0.0233    constr:    0.0000
     atom:    4    charge:    9.6504    magn:    0.0518    constr:    0.0000
     atom:    5    charge:    4.6831    magn:    0.3494    constr:    0.0000

     total cpu time spent up to now is       81.2 secs

     End of self-consistent calculation

 ------ SPIN UP ------------


          k = 0.2500 0.2500 0.2500 (  1346 PWs)   bands (ev):

   -10.9730  -0.8708  -0.7574  -0.7574  -0.3425  -0.2146  -0.2146  -0.1610
    -0.1398  -0.1398  -0.0800  -0.0800  -0.0741  -0.0352  -0.0352  -0.0273
     0.0498   0.0498   0.0626   0.0626   0.0834   0.1988   0.9160   0.9160
     2.1790   3.5123   4.2464   4.2464   5.9850   5.9850

 ------ SPIN DOWN ----------


          k = 0.2500 0.2500 0.2500 (  1346 PWs)   bands (ev):

   -10.4224  -0.7231  -0.6056  -0.6056  -0.2918  -0.1766  -0.1766  -0.1221
    -0.1138  -0.1138  -0.0566  -0.0566  -0.0373  -0.0161  -0.0161  -0.0122
     0.0728   0.0728   0.0884   0.0884   0.1003   0.2432   1.0879   1.0879
     2.4696   3.6107   4.4162   4.4162   6.0172   6.0172

     the Fermi energy is     2.3243 ev

!    total energy              =    -876.99200215 Ry
     Harris-Foulkes estimate   =    -876.99200193 Ry
     estimated scf accuracy    <          7.6E-09 Ry

     total all-electron energy =    -13345.809865 Ry

     The total energy is the sum of the following terms:

     one-electron contribution =    -260.30747307 Ry
     hartree contribution      =     181.31563377 Ry
     xc contribution           =    -181.19209759 Ry
     ewald contribution        =    -250.04933581 Ry
     one-center paw contrib.   =    -366.75024537 Ry
     smearing contrib. (-TS)   =      -0.00848408 Ry

     total magnetization       =     0.55 Bohr mag/cell
     absolute magnetization    =     0.70 Bohr mag/cell

     convergence has been achieved in  14 iterations

     Writing output data file Cu3N.save

     init_run     :      5.67s CPU      6.22s WALL (       1 calls)
     electrons    :     70.22s CPU     74.20s WALL (       1 calls)

     Called by init_run:
     wfcinit      :      0.20s CPU      0.21s WALL (       1 calls)
     potinit      :      3.89s CPU      4.27s WALL (       1 calls)

     Called by electrons:
     c_bands      :      6.64s CPU      6.75s WALL (      14 calls)
     sum_band     :      5.52s CPU      7.14s WALL (      14 calls)
     v_of_rho     :      3.08s CPU      3.09s WALL (      15 calls)
     newd         :      4.89s CPU      6.70s WALL (      15 calls)
     PAW_pot      :     54.00s CPU     54.83s WALL (      15 calls)
     mix_rho      :      0.20s CPU      0.19s WALL (      14 calls)

     Called by c_bands:
     init_us_2    :      0.05s CPU      0.06s WALL (      58 calls)
     cegterg      :      6.48s CPU      6.56s WALL (      28 calls)

     Called by sum_band:
     sum_band:bec :      0.00s CPU      0.00s WALL (      28 calls)
     addusdens    :      4.00s CPU      5.57s WALL (      14 calls)

     Called by *egterg:
     h_psi        :      3.78s CPU      3.86s WALL (     110 calls)
     s_psi        :      0.62s CPU      0.71s WALL (     110 calls)
     g_psi        :      0.02s CPU      0.01s WALL (      80 calls)
     cdiaghg      :      0.52s CPU      0.45s WALL (     108 calls)

     Called by h_psi:
     h_psi:pot    :      3.75s CPU      3.85s WALL (     110 calls)
     h_psi:calbec :      0.67s CPU      0.71s WALL (     110 calls)
     vloc_psi     :      2.42s CPU      2.44s WALL (     110 calls)
     add_vuspsi   :      0.66s CPU      0.70s WALL (     110 calls)

     General routines
     calbec       :      0.94s CPU      0.96s WALL (     138 calls)
     fft          :      0.88s CPU      0.85s WALL (     455 calls)
     ffts         :      0.05s CPU      0.04s WALL (      58 calls)
     fftw         :      2.47s CPU      2.58s WALL (    5464 calls)
     interpolate  :      0.16s CPU      0.16s WALL (      58 calls)
     davcio       :      0.00s CPU      0.01s WALL (       2 calls)

     Parallel routines
     fft_scatter  :      0.14s CPU      0.19s WALL (    5977 calls)

     PWSCF        :  1m16.69s CPU     1m21.41s WALL


   This run was terminated on:  19:36:12  11Feb2020            

=------------------------------------------------------------------------------=
   JOB DONE.
=------------------------------------------------------------------------------=
