### Running on host: LAPTOP-ORQA1H22

     Program PWSCF v.6.0 (svn rev. 13079) starts on 11Feb2020 at 19:36:12 

     This program is part of the open-source Quantum ESPRESSO suite
     for quantum simulation of materials; please cite
         "P. Giannozzi et al., J. Phys.:Condens. Matter 21 395502 (2009);
          URL http://www.quantum-espresso.org", 
     in publications or presentations arising from this work. More details at
     http://www.quantum-espresso.org/quote

     Parallel version (MPI), running on     1 processors
     Reading input from pw.25*8.in

     Current dimensions of program PWSCF are:
     Max number of different atomic species (ntypx) = 10
     Max number of k-points (npk) =  40000
     Max angular momentum in pseudopotentials (lmaxx) =  3
               file Cu.pbe-dn-kjpaw_psl.1.0.0.UPF: wavefunction(s)  4S 3D renormalized
               file N.pbe-n-kjpaw_psl.1.0.0.UPF: wavefunction(s)  2S renormalized

     Subspace diagonalization in iterative solution of the eigenvalue problem:
     a serial algorithm will be used


     G-vector sticks info
     --------------------
     sticks:   dense  smooth     PW     G-vecs:    dense   smooth      PW
     Sum        1481     749    213                42931    15203    2205



     bravais-lattice index     =            0
     lattice parameter (alat)  =       9.6376  a.u.
     unit-cell volume          =     895.1733 (a.u.)^3
     number of atoms/cell      =            5
     number of atomic types    =            2
     number of electrons       =        49.00
     number of Kohn-Sham states=           30
     kinetic-energy cutoff     =      25.0000  Ry
     charge density cutoff     =     200.0000  Ry
     convergence threshold     =      1.0E-07
     mixing beta               =       0.7000
     number of iterations used =            8  plain     mixing
     Exchange-correlation      =  SLA  PW   PBX  PBC ( 1  4  3  4 0 0)

     celldm(1)=   9.637603  celldm(2)=   0.000000  celldm(3)=   0.000000
     celldm(4)=   0.000000  celldm(5)=   0.000000  celldm(6)=   0.000000

     crystal axes: (cart. coord. in units of alat)
               a(1) = (   1.000000   0.000000   0.000000 )  
               a(2) = (   0.000000   1.000000   0.000000 )  
               a(3) = (   0.000000   0.000000   1.000000 )  

     reciprocal axes: (cart. coord. in units 2 pi/alat)
               b(1) = (  1.000000  0.000000  0.000000 )  
               b(2) = (  0.000000  1.000000  0.000000 )  
               b(3) = (  0.000000  0.000000  1.000000 )  


     PseudoPot. # 1 for Cu read from file:
     ../pseudo/Cu.pbe-dn-kjpaw_psl.1.0.0.UPF
     MD5 check sum: cfffd1f38ee05704b3e17f46f1730a6f
     Pseudo is Projector augmented-wave + core cor, Zval = 11.0
     Generated using "atomic" code by A. Dal Corso  v.6.3
     Shape of augmentation charge: PSQ
     Using radial grid of 1199 points,  6 beta functions with: 
                l(1) =   0
                l(2) =   0
                l(3) =   1
                l(4) =   1
                l(5) =   2
                l(6) =   2
     Q(r) pseudized with 0 coefficients 


     PseudoPot. # 2 for  N read from file:
     ../pseudo/N.pbe-n-kjpaw_psl.1.0.0.UPF
     MD5 check sum: 14c48229446f9f2d411169a3abcbc3fa
     Pseudo is Projector augmented-wave + core cor, Zval =  5.0
     Generated using "atomic" code by A. Dal Corso  v.6.3
     Shape of augmentation charge: PSQ
     Using radial grid of 1085 points,  4 beta functions with: 
                l(1) =   0
                l(2) =   0
                l(3) =   1
                l(4) =   1
     Q(r) pseudized with 0 coefficients 


     atomic species   valence    mass     pseudopotential
        Cu            11.00     1.00000     Cu( 1.00)
        N              5.00     1.00000      N( 1.00)

     Starting magnetic structure 
     atomic species   magnetization
        Cu           0.000
        N            0.500

     16 Sym. Ops., with inversion, found
          (note: 32 additional sym.ops. were found but ignored
           their fractional translations are incommensurate with FFT grid)


   Cartesian axes

     site n.     atom                  positions (alat units)
         1           Cu  tau(   1) = (   0.0000000   0.0000000   0.0000000  )
         2           Cu  tau(   2) = (   0.5000000   0.5000000   0.0000000  )
         3           Cu  tau(   3) = (   0.0000000   0.5000000   0.5000000  )
         4           Cu  tau(   4) = (   0.5000000   0.0000000   0.5000000  )
         5           N   tau(   5) = (   0.0000000   0.5000000   1.0000000  )

     number of k points=     1  gaussian smearing, width (Ry)=  0.0200
                       cart. coord. in units 2pi/alat
        k(    1) = (   0.2500000   0.2500000   0.2500000), wk =   1.0000000

     Dense  grid:    42931 G-vectors     FFT dimensions: (  45,  45,  45)

     Smooth grid:    15203 G-vectors     FFT dimensions: (  32,  32,  32)

     Estimated max dynamical RAM per process >      52.77Mb
     Generating pointlists ...
     new r_m :   0.2062 (alat units)  1.9878 (a.u.) for type    1
     new r_m :   0.2062 (alat units)  1.9878 (a.u.) for type    2

     Check: negative/imaginary core charge=   -0.000014    0.000000

     Initial potential from superposition of free atoms

     starting charge   48.99908, renormalised to   49.00000
     Starting wfc are   40 randomized atomic wfcs
     Checking if some PAW data can be deallocated... 

     total cpu time spent up to now is        7.5 secs

     per-process dynamical memory:    42.7 Mb

     Self-consistent Calculation

     iteration #  1     ecut=    25.00 Ry     beta=0.70
     Davidson diagonalization with overlap
     ethr =  1.00E-02,  avg # of iterations =  2.0

     Threshold (ethr) on eigenvalues was too large:
     Diagonalizing with lowered threshold

     Davidson diagonalization with overlap
     ethr =  7.24E-04,  avg # of iterations =  1.0

     total cpu time spent up to now is       14.0 secs

     total energy              =    -879.17972174 Ry
     Harris-Foulkes estimate   =    -879.36153596 Ry
     estimated scf accuracy    <       0.35153908 Ry

     total magnetization       =     1.00 Bohr mag/cell
     absolute magnetization    =     1.71 Bohr mag/cell

     iteration #  2     ecut=    25.00 Ry     beta=0.70
     Davidson diagonalization with overlap
     ethr =  7.17E-04,  avg # of iterations =  3.0

     total cpu time spent up to now is       19.6 secs

     total energy              =    -878.92174425 Ry
     Harris-Foulkes estimate   =    -879.86095609 Ry
     estimated scf accuracy    <       3.50651402 Ry

     total magnetization       =     0.44 Bohr mag/cell
     absolute magnetization    =     0.68 Bohr mag/cell

     iteration #  3     ecut=    25.00 Ry     beta=0.70
     Davidson diagonalization with overlap
     ethr =  7.17E-04,  avg # of iterations =  3.0

     total cpu time spent up to now is       25.2 secs

     total energy              =    -879.36788308 Ry
     Harris-Foulkes estimate   =    -879.38395895 Ry
     estimated scf accuracy    <       0.07896994 Ry

     total magnetization       =     0.93 Bohr mag/cell
     absolute magnetization    =     1.48 Bohr mag/cell

     iteration #  4     ecut=    25.00 Ry     beta=0.70
     Davidson diagonalization with overlap
     ethr =  1.61E-04,  avg # of iterations =  2.0

     total cpu time spent up to now is       30.6 secs

     total energy              =    -879.37838629 Ry
     Harris-Foulkes estimate   =    -879.38576857 Ry
     estimated scf accuracy    <       0.02806157 Ry

     total magnetization       =     0.90 Bohr mag/cell
     absolute magnetization    =     1.40 Bohr mag/cell

     iteration #  5     ecut=    25.00 Ry     beta=0.70
     Davidson diagonalization with overlap
     ethr =  5.73E-05,  avg # of iterations =  2.0

     total cpu time spent up to now is       36.2 secs

     total energy              =    -879.38379388 Ry
     Harris-Foulkes estimate   =    -879.38449090 Ry
     estimated scf accuracy    <       0.00388993 Ry

     total magnetization       =     0.82 Bohr mag/cell
     absolute magnetization    =     1.23 Bohr mag/cell

     iteration #  6     ecut=    25.00 Ry     beta=0.70
     Davidson diagonalization with overlap
     ethr =  7.94E-06,  avg # of iterations =  2.0

     total cpu time spent up to now is       41.7 secs

     total energy              =    -879.38437801 Ry
     Harris-Foulkes estimate   =    -879.38509196 Ry
     estimated scf accuracy    <       0.00402103 Ry

     total magnetization       =     0.78 Bohr mag/cell
     absolute magnetization    =     1.17 Bohr mag/cell

     iteration #  7     ecut=    25.00 Ry     beta=0.70
     Davidson diagonalization with overlap
     ethr =  7.94E-06,  avg # of iterations =  1.5

     total cpu time spent up to now is       47.2 secs

     total energy              =    -879.38502019 Ry
     Harris-Foulkes estimate   =    -879.38500654 Ry
     estimated scf accuracy    <       0.00039042 Ry

     total magnetization       =     0.76 Bohr mag/cell
     absolute magnetization    =     1.11 Bohr mag/cell

     iteration #  8     ecut=    25.00 Ry     beta=0.70
     Davidson diagonalization with overlap
     ethr =  7.97E-07,  avg # of iterations =  2.0

     total cpu time spent up to now is       52.7 secs

     total energy              =    -879.38519653 Ry
     Harris-Foulkes estimate   =    -879.38510969 Ry
     estimated scf accuracy    <       0.00016071 Ry

     total magnetization       =     0.75 Bohr mag/cell
     absolute magnetization    =     1.08 Bohr mag/cell

     iteration #  9     ecut=    25.00 Ry     beta=0.70
     Davidson diagonalization with overlap
     ethr =  3.28E-07,  avg # of iterations =  3.0

     total cpu time spent up to now is       58.2 secs

     total energy              =    -879.38556332 Ry
     Harris-Foulkes estimate   =    -879.38557727 Ry
     estimated scf accuracy    <       0.00016107 Ry

     total magnetization       =     0.67 Bohr mag/cell
     absolute magnetization    =     0.93 Bohr mag/cell

     iteration # 10     ecut=    25.00 Ry     beta=0.70
     Davidson diagonalization with overlap
     ethr =  3.28E-07,  avg # of iterations =  2.5

     total cpu time spent up to now is       63.7 secs

     total energy              =    -879.38564242 Ry
     Harris-Foulkes estimate   =    -879.38572861 Ry
     estimated scf accuracy    <       0.00002107 Ry

     total magnetization       =     0.60 Bohr mag/cell
     absolute magnetization    =     0.82 Bohr mag/cell

     iteration # 11     ecut=    25.00 Ry     beta=0.70
     Davidson diagonalization with overlap
     ethr =  4.30E-08,  avg # of iterations =  3.0

     total cpu time spent up to now is       69.4 secs

     total energy              =    -879.38566346 Ry
     Harris-Foulkes estimate   =    -879.38582979 Ry
     estimated scf accuracy    <       0.00000684 Ry

     total magnetization       =     0.52 Bohr mag/cell
     absolute magnetization    =     0.69 Bohr mag/cell

     iteration # 12     ecut=    25.00 Ry     beta=0.70
     Davidson diagonalization with overlap
     ethr =  1.40E-08,  avg # of iterations =  4.0

     total cpu time spent up to now is       75.1 secs

     total energy              =    -879.38583940 Ry
     Harris-Foulkes estimate   =    -879.38588391 Ry
     estimated scf accuracy    <       0.00000159 Ry

     total magnetization       =     0.41 Bohr mag/cell
     absolute magnetization    =     0.54 Bohr mag/cell

     iteration # 13     ecut=    25.00 Ry     beta=0.70
     Davidson diagonalization with overlap
     ethr =  3.25E-09,  avg # of iterations =  4.0

     total cpu time spent up to now is       80.8 secs

     total energy              =    -879.38588606 Ry
     Harris-Foulkes estimate   =    -879.38590534 Ry
     estimated scf accuracy    <       0.00000025 Ry

     total magnetization       =     0.34 Bohr mag/cell
     absolute magnetization    =     0.45 Bohr mag/cell

     iteration # 14     ecut=    25.00 Ry     beta=0.70
     Davidson diagonalization with overlap
     ethr =  5.14E-10,  avg # of iterations =  4.0

     total cpu time spent up to now is       86.8 secs

     total energy              =    -879.38590581 Ry
     Harris-Foulkes estimate   =    -879.38591441 Ry
     estimated scf accuracy    <       0.00000011 Ry

     total magnetization       =     0.30 Bohr mag/cell
     absolute magnetization    =     0.40 Bohr mag/cell

     iteration # 15     ecut=    25.00 Ry     beta=0.70
     Davidson diagonalization with overlap
     ethr =  2.20E-10,  avg # of iterations =  4.0

     Magnetic moment per site:
     atom:    1    charge:    9.5132    magn:    0.0210    constr:    0.0000
     atom:    2    charge:    9.5127    magn:    0.0210    constr:    0.0000
     atom:    3    charge:    9.5127    magn:    0.0210    constr:    0.0000
     atom:    4    charge:    9.5616    magn:    0.0212    constr:    0.0000
     atom:    5    charge:    4.7425    magn:    0.1633    constr:    0.0000

     total cpu time spent up to now is       92.5 secs

     End of self-consistent calculation

 ------ SPIN UP ------------


          k = 0.2500 0.2500 0.2500 (  1899 PWs)   bands (ev):

   -10.2879  -0.6926  -0.3330  -0.3330   0.2036   0.5607   0.5607   0.5660
     0.6434   0.6434   0.7343   0.7343   0.7701   0.7917   0.7917   0.8230
     0.9247   0.9343   0.9343   0.9915   1.0337   1.0337   1.4101   1.4101
     2.3225   3.5417   4.2138   4.2138   5.9161   5.9162

 ------ SPIN DOWN ----------


          k = 0.2500 0.2500 0.2500 (  1899 PWs)   bands (ev):

   -10.0350  -0.6244  -0.2339  -0.2339   0.2600   0.5840   0.5840   0.5954
     0.6590   0.6590   0.7508   0.7508   0.7897   0.8194   0.8194   0.8372
     0.9430   0.9474   0.9474   1.0069   1.0500   1.0500   1.4686   1.4686
     2.4575   3.5896   4.2951   4.2951   5.9275   5.9276

     the Fermi energy is     2.3900 ev

!    total energy              =    -879.38592050 Ry
     Harris-Foulkes estimate   =    -879.38591833 Ry
     estimated scf accuracy    <       0.00000004 Ry

     total all-electron energy =    -13348.203783 Ry

     The total energy is the sum of the following terms:

     one-electron contribution =    -265.91197779 Ry
     hartree contribution      =     186.40462583 Ry
     xc contribution           =    -182.81645276 Ry
     ewald contribution        =    -250.04933580 Ry
     one-center paw contrib.   =    -367.00216903 Ry
     smearing contrib. (-TS)   =      -0.01061095 Ry

     total magnetization       =     0.27 Bohr mag/cell
     absolute magnetization    =     0.36 Bohr mag/cell

     convergence has been achieved in  15 iterations

     Writing output data file Cu3N.save

     init_run     :      6.02s CPU      6.79s WALL (       1 calls)
     electrons    :     79.92s CPU     85.05s WALL (       1 calls)

     Called by init_run:
     wfcinit      :      0.22s CPU      0.23s WALL (       1 calls)
     potinit      :      4.06s CPU      4.39s WALL (       1 calls)

     Called by electrons:
     c_bands      :      8.34s CPU      8.42s WALL (      16 calls)
     sum_band     :      7.38s CPU      9.81s WALL (      16 calls)
     v_of_rho     :      4.50s CPU      4.55s WALL (      16 calls)
     newd         :      7.22s CPU      9.81s WALL (      16 calls)
     PAW_pot      :     56.52s CPU     56.99s WALL (      16 calls)
     mix_rho      :      0.25s CPU      0.26s WALL (      16 calls)

     Called by c_bands:
     init_us_2    :      0.05s CPU      0.10s WALL (      66 calls)
     cegterg      :      7.98s CPU      8.13s WALL (      32 calls)

     Called by sum_band:
     sum_band:bec :      0.00s CPU      0.00s WALL (      32 calls)
     addusdens    :      6.19s CPU      8.66s WALL (      16 calls)

     Called by *egterg:
     h_psi        :      3.80s CPU      3.85s WALL (     120 calls)
     s_psi        :      1.06s CPU      1.12s WALL (     120 calls)
     g_psi        :      0.02s CPU      0.02s WALL (      86 calls)
     cdiaghg      :      0.48s CPU      0.52s WALL (     116 calls)

     Called by h_psi:
     h_psi:pot    :      3.78s CPU      3.83s WALL (     120 calls)
     h_psi:calbec :      1.16s CPU      1.11s WALL (     120 calls)
     vloc_psi     :      1.52s CPU      1.60s WALL (     120 calls)
     add_vuspsi   :      1.11s CPU      1.11s WALL (     120 calls)

     General routines
     calbec       :      1.58s CPU      1.52s WALL (     152 calls)
     fft          :      1.33s CPU      1.17s WALL (     494 calls)
     ffts         :      0.02s CPU      0.02s WALL (      64 calls)
     fftw         :      1.31s CPU      1.39s WALL (    6254 calls)
     interpolate  :      0.20s CPU      0.20s WALL (      64 calls)
     davcio       :      0.00s CPU      0.03s WALL (       2 calls)

     Parallel routines
     fft_scatter  :      0.39s CPU      0.44s WALL (    6812 calls)

     PWSCF        :  1m26.69s CPU     1m32.80s WALL


   This run was terminated on:  19:37:45  11Feb2020            

=------------------------------------------------------------------------------=
   JOB DONE.
=------------------------------------------------------------------------------=
