### Running on host: LAPTOP-ORQA1H22

     Program PWSCF v.6.0 (svn rev. 13079) starts on 11Feb2020 at 19:37:46 

     This program is part of the open-source Quantum ESPRESSO suite
     for quantum simulation of materials; please cite
         "P. Giannozzi et al., J. Phys.:Condens. Matter 21 395502 (2009);
          URL http://www.quantum-espresso.org", 
     in publications or presentations arising from this work. More details at
     http://www.quantum-espresso.org/quote

     Parallel version (MPI), running on     1 processors
     Reading input from pw.5*12.in

     Current dimensions of program PWSCF are:
     Max number of different atomic species (ntypx) = 10
     Max number of k-points (npk) =  40000
     Max angular momentum in pseudopotentials (lmaxx) =  3
               file Cu.pbe-dn-kjpaw_psl.1.0.0.UPF: wavefunction(s)  4S 3D renormalized
               file N.pbe-n-kjpaw_psl.1.0.0.UPF: wavefunction(s)  2S renormalized

     Subspace diagonalization in iterative solution of the eigenvalue problem:
     a serial algorithm will be used


     G-vector sticks info
     --------------------
     sticks:   dense  smooth     PW     G-vecs:    dense   smooth      PW
     Sum         437     145     45                 7075     1357     251



     bravais-lattice index     =            0
     lattice parameter (alat)  =       9.6376  a.u.
     unit-cell volume          =     895.1733 (a.u.)^3
     number of atoms/cell      =            5
     number of atomic types    =            2
     number of electrons       =        49.00
     number of Kohn-Sham states=           30
     kinetic-energy cutoff     =       5.0000  Ry
     charge density cutoff     =      60.0000  Ry
     convergence threshold     =      1.0E-07
     mixing beta               =       0.7000
     number of iterations used =            8  plain     mixing
     Exchange-correlation      =  SLA  PW   PBX  PBC ( 1  4  3  4 0 0)

     celldm(1)=   9.637603  celldm(2)=   0.000000  celldm(3)=   0.000000
     celldm(4)=   0.000000  celldm(5)=   0.000000  celldm(6)=   0.000000

     crystal axes: (cart. coord. in units of alat)
               a(1) = (   1.000000   0.000000   0.000000 )  
               a(2) = (   0.000000   1.000000   0.000000 )  
               a(3) = (   0.000000   0.000000   1.000000 )  

     reciprocal axes: (cart. coord. in units 2 pi/alat)
               b(1) = (  1.000000  0.000000  0.000000 )  
               b(2) = (  0.000000  1.000000  0.000000 )  
               b(3) = (  0.000000  0.000000  1.000000 )  


     PseudoPot. # 1 for Cu read from file:
     ../pseudo/Cu.pbe-dn-kjpaw_psl.1.0.0.UPF
     MD5 check sum: cfffd1f38ee05704b3e17f46f1730a6f
     Pseudo is Projector augmented-wave + core cor, Zval = 11.0
     Generated using "atomic" code by A. Dal Corso  v.6.3
     Shape of augmentation charge: PSQ
     Using radial grid of 1199 points,  6 beta functions with: 
                l(1) =   0
                l(2) =   0
                l(3) =   1
                l(4) =   1
                l(5) =   2
                l(6) =   2
     Q(r) pseudized with 0 coefficients 


     PseudoPot. # 2 for  N read from file:
     ../pseudo/N.pbe-n-kjpaw_psl.1.0.0.UPF
     MD5 check sum: 14c48229446f9f2d411169a3abcbc3fa
     Pseudo is Projector augmented-wave + core cor, Zval =  5.0
     Generated using "atomic" code by A. Dal Corso  v.6.3
     Shape of augmentation charge: PSQ
     Using radial grid of 1085 points,  4 beta functions with: 
                l(1) =   0
                l(2) =   0
                l(3) =   1
                l(4) =   1
     Q(r) pseudized with 0 coefficients 


     atomic species   valence    mass     pseudopotential
        Cu            11.00     1.00000     Cu( 1.00)
        N              5.00     1.00000      N( 1.00)

     Starting magnetic structure 
     atomic species   magnetization
        Cu           0.000
        N            0.500

     48 Sym. Ops., with inversion, found (32 have fractional translation)



   Cartesian axes

     site n.     atom                  positions (alat units)
         1           Cu  tau(   1) = (   0.0000000   0.0000000   0.0000000  )
         2           Cu  tau(   2) = (   0.5000000   0.5000000   0.0000000  )
         3           Cu  tau(   3) = (   0.0000000   0.5000000   0.5000000  )
         4           Cu  tau(   4) = (   0.5000000   0.0000000   0.5000000  )
         5           N   tau(   5) = (   0.0000000   0.5000000   1.0000000  )

     number of k points=     1  gaussian smearing, width (Ry)=  0.0200
                       cart. coord. in units 2pi/alat
        k(    1) = (   0.2500000   0.2500000   0.2500000), wk =   1.0000000

     Dense  grid:     7075 G-vectors     FFT dimensions: (  24,  24,  24)

     Smooth grid:     1357 G-vectors     FFT dimensions: (  15,  15,  15)

     Estimated max dynamical RAM per process >       8.07Mb
     Generating pointlists ...
     new r_m :   0.2062 (alat units)  1.9878 (a.u.) for type    1
     new r_m :   0.2062 (alat units)  1.9878 (a.u.) for type    2

     Check: negative/imaginary core charge=   -0.001089    0.000000

     Initial potential from superposition of free atoms

     starting charge   48.99908, renormalised to   49.00000
     Starting wfc are   40 randomized atomic wfcs
     Checking if some PAW data can be deallocated... 

     total cpu time spent up to now is        5.8 secs

     per-process dynamical memory:    20.9 Mb

     Self-consistent Calculation

     iteration #  1     ecut=     5.00 Ry     beta=0.70
     Davidson diagonalization with overlap
     ethr =  1.00E-02,  avg # of iterations =  3.5

     total cpu time spent up to now is        9.8 secs

     total energy              =    -705.36136971 Ry
     Harris-Foulkes estimate   =    -851.81119212 Ry
     estimated scf accuracy    <     169.67011850 Ry

     total magnetization       =     0.40 Bohr mag/cell
     absolute magnetization    =     0.62 Bohr mag/cell

     iteration #  2     ecut=     5.00 Ry     beta=0.70
     Davidson diagonalization with overlap
     ethr =  1.00E-02,  avg # of iterations =  4.0

     total cpu time spent up to now is       13.6 secs

     total energy              =    -745.23925640 Ry
     Harris-Foulkes estimate   =    -752.66000211 Ry
     estimated scf accuracy    <      14.69058527 Ry

     total magnetization       =     0.14 Bohr mag/cell
     absolute magnetization    =     0.20 Bohr mag/cell

     iteration #  3     ecut=     5.00 Ry     beta=0.70
     Davidson diagonalization with overlap
     ethr =  1.00E-02,  avg # of iterations =  3.0

     total cpu time spent up to now is       17.4 secs

     total energy              =    -744.54919514 Ry
     Harris-Foulkes estimate   =    -748.51260363 Ry
     estimated scf accuracy    <       6.96047161 Ry

     total magnetization       =     0.54 Bohr mag/cell
     absolute magnetization    =     0.56 Bohr mag/cell

     iteration #  4     ecut=     5.00 Ry     beta=0.70
     Davidson diagonalization with overlap
     ethr =  1.00E-02,  avg # of iterations =  4.0

     negative rho (up, down):  2.393E-03 2.415E-03

     total cpu time spent up to now is       21.1 secs

     total energy              =    -745.16198105 Ry
     Harris-Foulkes estimate   =    -747.86590645 Ry
     estimated scf accuracy    <       7.18659523 Ry

     total magnetization       =     0.03 Bohr mag/cell
     absolute magnetization    =     0.04 Bohr mag/cell

     iteration #  5     ecut=     5.00 Ry     beta=0.70
     Davidson diagonalization with overlap
     ethr =  1.00E-02,  avg # of iterations =  3.0

     negative rho (up, down):  4.844E-03 4.890E-03

     total cpu time spent up to now is       24.9 secs

     total energy              =    -746.51448991 Ry
     Harris-Foulkes estimate   =    -746.89189844 Ry
     estimated scf accuracy    <       1.21025249 Ry

     total magnetization       =     0.30 Bohr mag/cell
     absolute magnetization    =     0.30 Bohr mag/cell

     iteration #  6     ecut=     5.00 Ry     beta=0.70
     Davidson diagonalization with overlap
     ethr =  2.47E-03,  avg # of iterations =  3.0

     negative rho (up, down):  4.626E-03 4.694E-03

     total cpu time spent up to now is       28.7 secs

     total energy              =    -746.62865215 Ry
     Harris-Foulkes estimate   =    -746.66114147 Ry
     estimated scf accuracy    <       0.38183770 Ry

     total magnetization       =     0.38 Bohr mag/cell
     absolute magnetization    =     0.38 Bohr mag/cell

     iteration #  7     ecut=     5.00 Ry     beta=0.70
     Davidson diagonalization with overlap
     ethr =  7.79E-04,  avg # of iterations =  1.0

     negative rho (up, down):  3.974E-03 4.038E-03

     total cpu time spent up to now is       32.4 secs

     total energy              =    -746.55009144 Ry
     Harris-Foulkes estimate   =    -746.63160275 Ry
     estimated scf accuracy    <       0.25519474 Ry

     total magnetization       =     0.41 Bohr mag/cell
     absolute magnetization    =     0.41 Bohr mag/cell

     iteration #  8     ecut=     5.00 Ry     beta=0.70
     Davidson diagonalization with overlap
     ethr =  5.21E-04,  avg # of iterations =  3.0

     negative rho (up, down):  3.857E-03 3.929E-03

     total cpu time spent up to now is       36.2 secs

     total energy              =    -746.58370339 Ry
     Harris-Foulkes estimate   =    -746.58420952 Ry
     estimated scf accuracy    <       0.00414561 Ry

     total magnetization       =     0.64 Bohr mag/cell
     absolute magnetization    =     0.64 Bohr mag/cell

     iteration #  9     ecut=     5.00 Ry     beta=0.70
     Davidson diagonalization with overlap
     ethr =  8.46E-06,  avg # of iterations =  3.0

     negative rho (up, down):  3.687E-03 3.749E-03

     total cpu time spent up to now is       39.9 secs

     total energy              =    -746.58399697 Ry
     Harris-Foulkes estimate   =    -746.58399812 Ry
     estimated scf accuracy    <       0.00132953 Ry

     total magnetization       =     0.71 Bohr mag/cell
     absolute magnetization    =     0.71 Bohr mag/cell

     iteration # 10     ecut=     5.00 Ry     beta=0.70
     Davidson diagonalization with overlap
     ethr =  2.71E-06,  avg # of iterations =  3.0

     negative rho (up, down):  3.678E-03 3.705E-03

     total cpu time spent up to now is       43.7 secs

     total energy              =    -746.58487321 Ry
     Harris-Foulkes estimate   =    -746.58470099 Ry
     estimated scf accuracy    <       0.00008253 Ry

     total magnetization       =     0.89 Bohr mag/cell
     absolute magnetization    =     0.89 Bohr mag/cell

     iteration # 11     ecut=     5.00 Ry     beta=0.70
     Davidson diagonalization with overlap
     ethr =  1.68E-07,  avg # of iterations =  4.0

     negative rho (up, down):  3.666E-03 3.697E-03

     total cpu time spent up to now is       47.4 secs

     total energy              =    -746.58539337 Ry
     Harris-Foulkes estimate   =    -746.58542214 Ry
     estimated scf accuracy    <       0.00013754 Ry

     total magnetization       =     0.99 Bohr mag/cell
     absolute magnetization    =     1.00 Bohr mag/cell

     iteration # 12     ecut=     5.00 Ry     beta=0.70
     Davidson diagonalization with overlap
     ethr =  1.68E-07,  avg # of iterations =  3.5

     negative rho (up, down):  3.672E-03 3.695E-03

     total cpu time spent up to now is       51.2 secs

     total energy              =    -746.58544842 Ry
     Harris-Foulkes estimate   =    -746.58547192 Ry
     estimated scf accuracy    <       0.00006170 Ry

     total magnetization       =     1.01 Bohr mag/cell
     absolute magnetization    =     1.01 Bohr mag/cell

     iteration # 13     ecut=     5.00 Ry     beta=0.70
     Davidson diagonalization with overlap
     ethr =  1.26E-07,  avg # of iterations =  3.0

     negative rho (up, down):  3.671E-03 3.696E-03

     total cpu time spent up to now is       54.9 secs

     total energy              =    -746.58547142 Ry
     Harris-Foulkes estimate   =    -746.58547166 Ry
     estimated scf accuracy    <       0.00000256 Ry

     total magnetization       =     1.02 Bohr mag/cell
     absolute magnetization    =     1.03 Bohr mag/cell

     iteration # 14     ecut=     5.00 Ry     beta=0.70
     Davidson diagonalization with overlap
     ethr =  5.23E-09,  avg # of iterations =  4.0

     negative rho (up, down):  3.671E-03 3.695E-03

     total cpu time spent up to now is       58.7 secs

     total energy              =    -746.58547219 Ry
     Harris-Foulkes estimate   =    -746.58547315 Ry
     estimated scf accuracy    <       0.00000266 Ry

     total magnetization       =     1.02 Bohr mag/cell
     absolute magnetization    =     1.02 Bohr mag/cell

     iteration # 15     ecut=     5.00 Ry     beta=0.70
     Davidson diagonalization with overlap
     ethr =  5.23E-09,  avg # of iterations =  3.0

     negative rho (up, down):  3.671E-03 3.695E-03

     total cpu time spent up to now is       62.4 secs

     total energy              =    -746.58547281 Ry
     Harris-Foulkes estimate   =    -746.58547298 Ry
     estimated scf accuracy    <       0.00000042 Ry

     total magnetization       =     1.02 Bohr mag/cell
     absolute magnetization    =     1.02 Bohr mag/cell

     iteration # 16     ecut=     5.00 Ry     beta=0.70
     Davidson diagonalization with overlap
     ethr =  8.67E-10,  avg # of iterations =  3.0

     negative rho (up, down):  3.671E-03 3.695E-03

     Magnetic moment per site:
     atom:    1    charge:    7.5113    magn:    0.0519    constr:    0.0000
     atom:    2    charge:    7.5113    magn:    0.0519    constr:    0.0000
     atom:    3    charge:    7.5113    magn:    0.0519    constr:    0.0000
     atom:    4    charge:    7.3869    magn:    0.0045    constr:    0.0000
     atom:    5    charge:    3.5937    magn:    0.5175    constr:    0.0000

     total cpu time spent up to now is       66.2 secs

     End of self-consistent calculation

 ------ SPIN UP ------------


          k = 0.2500 0.2500 0.2500 (   172 PWs)   bands (ev):

   -20.3556 -20.1937 -19.9212 -19.9212 -17.1450  -4.2661  -4.2661  -3.7846
    -3.6565  -3.6565  -3.5012  -3.4147  -3.4147  -3.2723  -3.2723  -3.1693
    -3.0699   2.9925   3.5179   3.5179   3.9558   3.9558   4.4968   5.9418
     5.9418   6.8601   7.4234   7.4234   8.2865   8.5377

 ------ SPIN DOWN ----------


          k = 0.2500 0.2500 0.2500 (   172 PWs)   bands (ev):

   -20.3026 -20.1407 -19.8748 -19.8748 -16.4073  -4.1565  -4.1565  -3.7564
    -3.6182  -3.6182  -3.4211  -3.3873  -3.3873  -3.2202  -3.2202  -3.0760
    -3.0196   3.2385   3.5860   3.5860   3.9961   3.9961   4.5679   6.4515
     6.4515   6.9808   7.4781   7.4781   8.3331   9.2171

     the Fermi energy is     6.4489 ev

!    total energy              =    -746.58547290 Ry
     Harris-Foulkes estimate   =    -746.58547289 Ry
     estimated scf accuracy    <          4.3E-10 Ry

     total all-electron energy =    -13215.403335 Ry

     The total energy is the sum of the following terms:

     one-electron contribution =     -25.82103918 Ry
     hartree contribution      =      39.73507866 Ry
     xc contribution           =    -140.16807608 Ry
     ewald contribution        =    -250.04933579 Ry
     one-center paw contrib.   =    -370.26976919 Ry
     smearing contrib. (-TS)   =      -0.01233133 Ry

     total magnetization       =     1.02 Bohr mag/cell
     absolute magnetization    =     1.02 Bohr mag/cell

     convergence has been achieved in  16 iterations

     Writing output data file Cu3N.save

     init_run     :      4.48s CPU      5.04s WALL (       1 calls)
     electrons    :     59.98s CPU     60.38s WALL (       1 calls)

     Called by init_run:
     wfcinit      :      0.00s CPU      0.03s WALL (       1 calls)
     potinit      :      3.84s CPU      4.21s WALL (       1 calls)

     Called by electrons:
     c_bands      :      1.23s CPU      1.36s WALL (      16 calls)
     sum_band     :      1.31s CPU      1.35s WALL (      16 calls)
     v_of_rho     :      0.72s CPU      0.71s WALL (      17 calls)
     newd         :      1.30s CPU      1.31s WALL (      17 calls)
     PAW_pot      :     59.22s CPU     59.81s WALL (      17 calls)
     mix_rho      :      0.03s CPU      0.03s WALL (      16 calls)

     Called by c_bands:
     init_us_2    :      0.00s CPU      0.01s WALL (      66 calls)
     cegterg      :      1.23s CPU      1.32s WALL (      32 calls)

     Called by sum_band:
     sum_band:bec :      0.00s CPU      0.00s WALL (      32 calls)
     addusdens    :      0.97s CPU      1.00s WALL (      16 calls)

     Called by *egterg:
     h_psi        :      0.38s CPU      0.41s WALL (     136 calls)
     s_psi        :      0.11s CPU      0.11s WALL (     136 calls)
     g_psi        :      0.00s CPU      0.00s WALL (     102 calls)
     cdiaghg      :      0.56s CPU      0.56s WALL (     134 calls)

     Called by h_psi:
     h_psi:pot    :      0.38s CPU      0.41s WALL (     136 calls)
     h_psi:calbec :      0.11s CPU      0.10s WALL (     136 calls)
     vloc_psi     :      0.19s CPU      0.19s WALL (     136 calls)
     add_vuspsi   :      0.08s CPU      0.11s WALL (     136 calls)

     General routines
     calbec       :      0.14s CPU      0.14s WALL (     168 calls)
     fft          :      0.11s CPU      0.16s WALL (     517 calls)
     ffts         :      0.00s CPU      0.00s WALL (      66 calls)
     fftw         :      0.20s CPU      0.17s WALL (    6122 calls)
     interpolate  :      0.05s CPU      0.02s WALL (      66 calls)
     davcio       :      0.00s CPU      0.00s WALL (       2 calls)

     Parallel routines
     fft_scatter  :      0.02s CPU      0.04s WALL (    6705 calls)

     PWSCF        :  1m 5.20s CPU     1m 6.36s WALL


   This run was terminated on:  19:38:52  11Feb2020            

=------------------------------------------------------------------------------=
   JOB DONE.
=------------------------------------------------------------------------------=
