--------------------------------------------------------------------------
WARNING: Linux kernel CMA support was requested via the
btl_vader_single_copy_mechanism MCA variable, but CMA support is
not available due to restrictive ptrace settings.

The vader shared memory BTL will fall back on another single-copy
mechanism if one is available. This may result in lower performance.

  Local host: DESKTOP-L90FV74
--------------------------------------------------------------------------

     Program PHONON v.6.0 (svn rev. 13079) starts on  1Jul2020 at 15:22:16 

     This program is part of the open-source Quantum ESPRESSO suite
     for quantum simulation of materials; please cite
         "P. Giannozzi et al., J. Phys.:Condens. Matter 21 395502 (2009);
          URL http://www.quantum-espresso.org", 
     in publications or presentations arising from this work. More details at
     http://www.quantum-espresso.org/quote

     Parallel version (MPI), running on    15 processors
     R & G space division:  proc/nbgrp/npool/nimage =      15

     Reading data from directory:
     ./tmp/Cu2N.save

   Info: using nr1, nr2, nr3 values from input

   Info: using nr1, nr2, nr3 values from input

     IMPORTANT: XC functional enforced from input :
     Exchange-correlation      =  SLA  PW   PBX  PBC ( 1  4  3  4 0 0)
     Any further DFT definition will be discarded
     Please, verify this is what you really want

               file Cu.pbe-dn-kjpaw_psl.1.0.0.UPF: wavefunction(s)  4S 3D renormalized
               file N.pbe-n-kjpaw_psl.1.0.0.UPF: wavefunction(s)  2S renormalized

     Parallelization info
     --------------------
     sticks:   dense  smooth     PW     G-vecs:    dense   smooth      PW
     Min          32      32      9                  512      512      86
     Max          33      33     11                  514      514      90
     Sum         481     481    145                 7689     7689    1309

     Generating pointlists ...
     new r_m :   0.1969 (alat units)  1.3792 (a.u.) for type    1
     new r_m :   0.1969 (alat units)  1.3792 (a.u.) for type    2

     Check: negative/imaginary core charge=   -0.000075    0.000000


     Dynamical matrices for ( 2, 2, 2)  uniform grid of q-points
     (   8q-points):
       N         xq(1)         xq(2)         xq(3) 
       1   0.000000000   0.000000000   0.000000000
       2   0.000000000   0.000000000  -0.500000000
       3   0.000000000  -0.500062172   0.000000000
       4   0.000000000  -0.500062172  -0.500000000
       5  -0.500000000   0.000000000   0.000000000
       6  -0.500000000   0.000000000  -0.500000000
       7  -0.500000000  -0.500062172   0.000000000
       8  -0.500000000  -0.500062172  -0.500000000

     Calculation of q =    0.0000000   0.0000000   0.0000000

                                                                                

     bravais-lattice index     =            0
     lattice parameter (alat)  =       7.0055  a.u.
     unit-cell volume          =     343.7659 (a.u.)^3
     number of atoms/cell      =            5
     number of atomic types    =            2
     kinetic-energy cut-off    =      30.0000  Ry
     charge density cut-off    =     120.0000  Ry
     convergence threshold     =      1.0E-12
     beta                      =       0.7000
     number of iterations used =            4
     Exchange-correlation      =  SLA  PW   PBX  PBC ( 1  4  3  4 0 0)


     celldm(1)=    7.00550  celldm(2)=    0.00000  celldm(3)=    0.00000
     celldm(4)=    0.00000  celldm(5)=    0.00000  celldm(6)=    0.00000

     crystal axes: (cart. coord. in units of alat)
               a(1) = (  1.0000  0.0000  0.0000 )  
               a(2) = (  0.0000  0.9999  0.0000 )  
               a(3) = (  0.0000  0.0000  1.0000 )  

     reciprocal axes: (cart. coord. in units 2 pi/alat)
               b(1) = (  1.0000  0.0000  0.0000 )  
               b(2) = (  0.0000  1.0001  0.0000 )  
               b(3) = (  0.0000  0.0000  1.0000 )  


     Atoms inside the unit cell: 

     Cartesian axes

     site n.  atom      mass           positions (alat units)
        1     Cu  63.5460   tau(    1) = (    0.00000    0.00000    0.00000  )
        2     Cu  63.5460   tau(    2) = (    0.50000    0.49994    0.00000  )
        3     Cu  63.5460   tau(    3) = (    0.00000    0.49994    0.47492  )
        4     Cu  63.5460   tau(    4) = (    0.50000    0.00000    0.47479  )
        5     N   14.0070   tau(    5) = (    0.00000    0.49994    0.99764  )

     Computing dynamical matrix for 
                    q = (   0.0000000   0.0000000   0.0000000 )

      5 Sym.Ops. (with q -> -q+G )


     G cutoff =  149.1761  (    514 G-vectors)     FFT grid: ( 25, 25, 25)

     number of k points=    16  gaussian smearing, width (Ry)=  0.0200

     PseudoPot. # 1 for Cu read from file:
     ../../pseudo/Cu.pbe-dn-kjpaw_psl.1.0.0.UPF
     MD5 check sum: d0575d8777d02cc05b6679c1e3a9a036
     Pseudo is Projector augmented-wave + core cor, Zval = 11.0
     Generated using "atomic" code by A. Dal Corso  v.6.3
     Shape of augmentation charge: PSQ
     Using radial grid of 1199 points,  6 beta functions with: 
                l(1) =   0
                l(2) =   0
                l(3) =   1
                l(4) =   1
                l(5) =   2
                l(6) =   2
     Q(r) pseudized with 0 coefficients 


     PseudoPot. # 2 for  N read from file:
     ../../pseudo/N.pbe-n-kjpaw_psl.1.0.0.UPF
     MD5 check sum: 57d39628416b425e94b4a4c0ec66cafa
     Pseudo is Projector augmented-wave + core cor, Zval =  5.0
     Generated using "atomic" code by A. Dal Corso  v.6.3
     Shape of augmentation charge: PSQ
     Using radial grid of 1085 points,  4 beta functions with: 
                l(1) =   0
                l(2) =   0
                l(3) =   1
                l(4) =   1
     Q(r) pseudized with 0 coefficients 


     Mode symmetry, C_2v (mm2)  point group:


     Atomic displacements:
     There are  15 irreducible representations

     Representation     1      1 modes -A_1  D_1  S_1  To be done

     Representation     2      1 modes -A_1  D_1  S_1  To be done

     Representation     3      1 modes -A_1  D_1  S_1  To be done

     Representation     4      1 modes -A_1  D_1  S_1  To be done

     Representation     5      1 modes -A_1  D_1  S_1  To be done

     Representation     6      1 modes -B_1  D_3  S_3  To be done

     Representation     7      1 modes -B_1  D_3  S_3  To be done

     Representation     8      1 modes -B_1  D_3  S_3  To be done

     Representation     9      1 modes -B_1  D_3  S_3  To be done

     Representation    10      1 modes -B_1  D_3  S_3  To be done

     Representation    11      1 modes -B_2  D_4  S_4  To be done

     Representation    12      1 modes -B_2  D_4  S_4  To be done

     Representation    13      1 modes -B_2  D_4  S_4  To be done

     Representation    14      1 modes -B_2  D_4  S_4  To be done

     Representation    15      1 modes -B_2  D_4  S_4  To be done



     Alpha used in Ewald sum =   1.1000
     PHONON       :     2.14s CPU         6.16s WALL



     Representation #  1 mode #   1

     Self-consistent Calculation

     Pert. #  1: Fermi energy shift (Ry) =    -8.4816E-04     0.0000E+00

      iter #   1 total cpu time :    12.0 secs   av.it.:   8.1
      thresh= 1.000E-02 alpha_mix =  0.700 |ddv_scf|^2 =  2.832E-05

     Pert. #  1: Fermi energy shift (Ry) =     4.3482E-02     0.0000E+00

      iter #   2 total cpu time :    18.5 secs   av.it.:  13.4
      thresh= 5.322E-04 alpha_mix =  0.700 |ddv_scf|^2 =  6.094E-06

     Pert. #  1: Fermi energy shift (Ry) =    -5.3275E-02     0.0000E+00

      iter #   3 total cpu time :    25.4 secs   av.it.:  13.6
      thresh= 2.469E-04 alpha_mix =  0.700 |ddv_scf|^2 =  2.443E-06

     Pert. #  1: Fermi energy shift (Ry) =     1.7863E-02     0.0000E+00

      iter #   4 total cpu time :    31.9 secs   av.it.:  13.9
      thresh= 1.563E-04 alpha_mix =  0.700 |ddv_scf|^2 =  1.512E-06

     Pert. #  1: Fermi energy shift (Ry) =     2.7422E-02     0.0000E+00

      iter #   5 total cpu time :    38.0 secs   av.it.:  13.4
      thresh= 1.230E-04 alpha_mix =  0.700 |ddv_scf|^2 =  3.304E-08

     Pert. #  1: Fermi energy shift (Ry) =    -5.3404E-03     0.0000E+00

      iter #   6 total cpu time :    45.3 secs   av.it.:  13.8
      thresh= 1.818E-05 alpha_mix =  0.700 |ddv_scf|^2 =  1.239E-08

     Pert. #  1: Fermi energy shift (Ry) =    -6.9345E-03     0.0000E+00

      iter #   7 total cpu time :    52.5 secs   av.it.:  13.4
      thresh= 1.113E-05 alpha_mix =  0.700 |ddv_scf|^2 =  6.076E-09

     Pert. #  1: Fermi energy shift (Ry) =     1.3380E-03     0.0000E+00

      iter #   8 total cpu time :    59.9 secs   av.it.:  13.4
      thresh= 7.795E-06 alpha_mix =  0.700 |ddv_scf|^2 =  2.017E-10

     Pert. #  1: Fermi energy shift (Ry) =     1.5057E-03     0.0000E+00

      iter #   9 total cpu time :    67.3 secs   av.it.:  13.5
      thresh= 1.420E-06 alpha_mix =  0.700 |ddv_scf|^2 =  5.144E-11

     Pert. #  1: Fermi energy shift (Ry) =     9.7387E-04     0.0000E+00

      iter #  10 total cpu time :    74.5 secs   av.it.:  13.4
      thresh= 7.172E-07 alpha_mix =  0.700 |ddv_scf|^2 =  1.606E-11

     Pert. #  1: Fermi energy shift (Ry) =     6.7380E-04     0.0000E+00

      iter #  11 total cpu time :    82.1 secs   av.it.:  14.2
      thresh= 4.007E-07 alpha_mix =  0.700 |ddv_scf|^2 =  1.829E-11

     Pert. #  1: Fermi energy shift (Ry) =     1.1122E-03     0.0000E+00

      iter #  12 total cpu time :    89.3 secs   av.it.:  13.4
      thresh= 4.276E-07 alpha_mix =  0.700 |ddv_scf|^2 =  2.001E-12

     Pert. #  1: Fermi energy shift (Ry) =     9.5242E-04     0.0000E+00

      iter #  13 total cpu time :    96.5 secs   av.it.:  13.6
      thresh= 1.415E-07 alpha_mix =  0.700 |ddv_scf|^2 =  4.272E-13

     End of self-consistent calculation

     Convergence has been achieved 


     Representation #  2 mode #   2

     Self-consistent Calculation

     Pert. #  1: Fermi energy shift (Ry) =     3.4460E-03     0.0000E+00

      iter #   1 total cpu time :   103.4 secs   av.it.:   8.9
      thresh= 1.000E-02 alpha_mix =  0.700 |ddv_scf|^2 =  2.688E-05

     Pert. #  1: Fermi energy shift (Ry) =    -6.9836E-03     0.0000E+00

      iter #   2 total cpu time :   109.5 secs   av.it.:  13.6
      thresh= 5.185E-04 alpha_mix =  0.700 |ddv_scf|^2 =  5.443E-06

     Pert. #  1: Fermi energy shift (Ry) =    -5.6226E-03     0.0000E+00

      iter #   3 total cpu time :   116.2 secs   av.it.:  13.9
      thresh= 2.333E-04 alpha_mix =  0.700 |ddv_scf|^2 =  2.673E-06

     Pert. #  1: Fermi energy shift (Ry) =     2.1737E-02     0.0000E+00

      iter #   4 total cpu time :   122.9 secs   av.it.:  13.9
      thresh= 1.635E-04 alpha_mix =  0.700 |ddv_scf|^2 =  1.363E-06

     Pert. #  1: Fermi energy shift (Ry) =    -1.3666E-02     0.0000E+00

      iter #   5 total cpu time :   129.3 secs   av.it.:  13.4
      thresh= 1.167E-04 alpha_mix =  0.700 |ddv_scf|^2 =  6.821E-08

     Pert. #  1: Fermi energy shift (Ry) =    -2.7363E-03     0.0000E+00

      iter #   6 total cpu time :   135.8 secs   av.it.:  13.5
      thresh= 2.612E-05 alpha_mix =  0.700 |ddv_scf|^2 =  8.360E-09

     Pert. #  1: Fermi energy shift (Ry) =     1.3166E-02     0.0000E+00

      iter #   7 total cpu time :   143.2 secs   av.it.:  14.2
      thresh= 9.143E-06 alpha_mix =  0.700 |ddv_scf|^2 =  7.781E-09

     Pert. #  1: Fermi energy shift (Ry) =     1.0753E-03     0.0000E+00

      iter #   8 total cpu time :   150.2 secs   av.it.:  13.6
      thresh= 8.821E-06 alpha_mix =  0.700 |ddv_scf|^2 =  7.481E-11

     Pert. #  1: Fermi energy shift (Ry) =     2.8183E-04     0.0000E+00

      iter #   9 total cpu time :   157.0 secs   av.it.:  14.4
      thresh= 8.649E-07 alpha_mix =  0.700 |ddv_scf|^2 =  6.176E-11

     Pert. #  1: Fermi energy shift (Ry) =     1.1581E-03     0.0000E+00

      iter #  10 total cpu time :   164.6 secs   av.it.:  13.6
      thresh= 7.859E-07 alpha_mix =  0.700 |ddv_scf|^2 =  2.382E-12

     Pert. #  1: Fermi energy shift (Ry) =     9.4414E-04     0.0000E+00

      iter #  11 total cpu time :   171.8 secs   av.it.:  15.2
      thresh= 1.543E-07 alpha_mix =  0.700 |ddv_scf|^2 =  1.044E-11

     Pert. #  1: Fermi energy shift (Ry) =     1.0050E-03     0.0000E+00

      iter #  12 total cpu time :   178.9 secs   av.it.:  13.9
      thresh= 3.231E-07 alpha_mix =  0.700 |ddv_scf|^2 =  1.343E-12

     Pert. #  1: Fermi energy shift (Ry) =     1.0475E-03     0.0000E+00

      iter #  13 total cpu time :   185.8 secs   av.it.:  13.9
      thresh= 1.159E-07 alpha_mix =  0.700 |ddv_scf|^2 =  1.227E-13

     End of self-consistent calculation

     Convergence has been achieved 


     Representation #  3 mode #   3

     Self-consistent Calculation

     Pert. #  1: Fermi energy shift (Ry) =    -4.9602E-02     0.0000E+00

      iter #   1 total cpu time :   192.6 secs   av.it.:   8.4
      thresh= 1.000E-02 alpha_mix =  0.700 |ddv_scf|^2 =  2.908E-05

     Pert. #  1: Fermi energy shift (Ry) =     9.9132E-02     0.0000E+00

      iter #   2 total cpu time :   199.4 secs   av.it.:  13.4
      thresh= 5.393E-04 alpha_mix =  0.700 |ddv_scf|^2 =  7.701E-06

     Pert. #  1: Fermi energy shift (Ry) =    -7.2893E-02     0.0000E+00

      iter #   3 total cpu time :   206.2 secs   av.it.:  14.2
      thresh= 2.775E-04 alpha_mix =  0.700 |ddv_scf|^2 =  6.638E-06

     Pert. #  1: Fermi energy shift (Ry) =    -4.3897E-03     0.0000E+00

      iter #   4 total cpu time :   212.7 secs   av.it.:  13.4
      thresh= 2.576E-04 alpha_mix =  0.700 |ddv_scf|^2 =  9.709E-07

     Pert. #  1: Fermi energy shift (Ry) =     2.0749E-02     0.0000E+00

      iter #   5 total cpu time :   220.1 secs   av.it.:  13.5
      thresh= 9.854E-05 alpha_mix =  0.700 |ddv_scf|^2 =  2.057E-07

     Pert. #  1: Fermi energy shift (Ry) =     7.8349E-03     0.0000E+00

      iter #   6 total cpu time :   226.9 secs   av.it.:  13.4
      thresh= 4.535E-05 alpha_mix =  0.700 |ddv_scf|^2 =  2.544E-08

     Pert. #  1: Fermi energy shift (Ry) =     4.3119E-03     0.0000E+00

      iter #   7 total cpu time :   234.6 secs   av.it.:  13.4
      thresh= 1.595E-05 alpha_mix =  0.700 |ddv_scf|^2 =  1.015E-08

     Pert. #  1: Fermi energy shift (Ry) =    -1.2884E-03     0.0000E+00

      iter #   8 total cpu time :   240.7 secs   av.it.:  13.4
      thresh= 1.007E-05 alpha_mix =  0.700 |ddv_scf|^2 =  8.044E-10

     Pert. #  1: Fermi energy shift (Ry) =     5.4516E-03     0.0000E+00

      iter #   9 total cpu time :   247.8 secs   av.it.:  13.5
      thresh= 2.836E-06 alpha_mix =  0.700 |ddv_scf|^2 =  8.673E-11

     Pert. #  1: Fermi energy shift (Ry) =     3.6615E-03     0.0000E+00

      iter #  10 total cpu time :   255.7 secs   av.it.:  14.4
      thresh= 9.313E-07 alpha_mix =  0.700 |ddv_scf|^2 =  1.780E-10

     Pert. #  1: Fermi energy shift (Ry) =     3.6746E-03     0.0000E+00

      iter #  11 total cpu time :   262.0 secs   av.it.:  13.4
      thresh= 1.334E-06 alpha_mix =  0.700 |ddv_scf|^2 =  1.265E-11

     Pert. #  1: Fermi energy shift (Ry) =     3.9139E-03     0.0000E+00

      iter #  12 total cpu time :   269.1 secs   av.it.:  13.6
      thresh= 3.557E-07 alpha_mix =  0.700 |ddv_scf|^2 =  4.037E-12

     Pert. #  1: Fermi energy shift (Ry) =     3.8376E-03     0.0000E+00

      iter #  13 total cpu time :   275.7 secs   av.it.:  13.8
      thresh= 2.009E-07 alpha_mix =  0.700 |ddv_scf|^2 =  5.977E-12

     Pert. #  1: Fermi energy shift (Ry) =     3.8916E-03     0.0000E+00

      iter #  14 total cpu time :   281.8 secs   av.it.:  13.4
      thresh= 2.445E-07 alpha_mix =  0.700 |ddv_scf|^2 =  2.190E-13

     End of self-consistent calculation

     Convergence has been achieved 


     Representation #  4 mode #   4

     Self-consistent Calculation

     Pert. #  1: Fermi energy shift (Ry) =     3.4243E-03     0.0000E+00

      iter #   1 total cpu time :   288.2 secs   av.it.:   8.9
      thresh= 1.000E-02 alpha_mix =  0.700 |ddv_scf|^2 =  2.688E-05

     Pert. #  1: Fermi energy shift (Ry) =    -7.0088E-03     0.0000E+00

      iter #   2 total cpu time :   295.1 secs   av.it.:  13.6
      thresh= 5.185E-04 alpha_mix =  0.700 |ddv_scf|^2 =  5.442E-06

     Pert. #  1: Fermi energy shift (Ry) =    -5.5004E-03     0.0000E+00

      iter #   3 total cpu time :   301.1 secs   av.it.:  13.9
      thresh= 2.333E-04 alpha_mix =  0.700 |ddv_scf|^2 =  2.667E-06

     Pert. #  1: Fermi energy shift (Ry) =     2.1729E-02     0.0000E+00

      iter #   4 total cpu time :   307.6 secs   av.it.:  13.9
      thresh= 1.633E-04 alpha_mix =  0.700 |ddv_scf|^2 =  1.365E-06

     Pert. #  1: Fermi energy shift (Ry) =    -1.3654E-02     0.0000E+00

      iter #   5 total cpu time :   314.7 secs   av.it.:  13.4
      thresh= 1.168E-04 alpha_mix =  0.700 |ddv_scf|^2 =  6.805E-08

     Pert. #  1: Fermi energy shift (Ry) =    -2.7017E-03     0.0000E+00

      iter #   6 total cpu time :   321.6 secs   av.it.:  13.5
      thresh= 2.609E-05 alpha_mix =  0.700 |ddv_scf|^2 =  8.354E-09

     Pert. #  1: Fermi energy shift (Ry) =     1.3189E-02     0.0000E+00

      iter #   7 total cpu time :   328.9 secs   av.it.:  14.2
      thresh= 9.140E-06 alpha_mix =  0.700 |ddv_scf|^2 =  7.782E-09

     Pert. #  1: Fermi energy shift (Ry) =     1.1010E-03     0.0000E+00

      iter #   8 total cpu time :   335.9 secs   av.it.:  13.5
      thresh= 8.822E-06 alpha_mix =  0.700 |ddv_scf|^2 =  7.488E-11

     Pert. #  1: Fermi energy shift (Ry) =     3.0694E-04     0.0000E+00

      iter #   9 total cpu time :   342.2 secs   av.it.:  14.4
      thresh= 8.653E-07 alpha_mix =  0.700 |ddv_scf|^2 =  6.169E-11

     Pert. #  1: Fermi energy shift (Ry) =     1.1846E-03     0.0000E+00

      iter #  10 total cpu time :   350.0 secs   av.it.:  13.6
      thresh= 7.854E-07 alpha_mix =  0.700 |ddv_scf|^2 =  2.115E-12

     Pert. #  1: Fermi energy shift (Ry) =     9.6029E-04     0.0000E+00

      iter #  11 total cpu time :   358.3 secs   av.it.:  15.2
      thresh= 1.454E-07 alpha_mix =  0.700 |ddv_scf|^2 =  8.422E-12

     Pert. #  1: Fermi energy shift (Ry) =     1.0377E-03     0.0000E+00

      iter #  12 total cpu time :   365.8 secs   av.it.:  13.8
      thresh= 2.902E-07 alpha_mix =  0.700 |ddv_scf|^2 =  1.196E-12

     Pert. #  1: Fermi energy shift (Ry) =     1.0734E-03     0.0000E+00

      iter #  13 total cpu time :   372.6 secs   av.it.:  13.9
      thresh= 1.094E-07 alpha_mix =  0.700 |ddv_scf|^2 =  1.284E-13

     End of self-consistent calculation

     Convergence has been achieved 


     Representation #  5 mode #   5

     Self-consistent Calculation

     Pert. #  1: Fermi energy shift (Ry) =     5.4128E-03     0.0000E+00

      iter #   1 total cpu time :   378.9 secs   av.it.:   7.4
      thresh= 1.000E-02 alpha_mix =  0.700 |ddv_scf|^2 =  5.721E-06

     Pert. #  1: Fermi energy shift (Ry) =    -4.2571E-02     0.0000E+00

      iter #   2 total cpu time :   385.6 secs   av.it.:  13.5
      thresh= 2.392E-04 alpha_mix =  0.700 |ddv_scf|^2 =  1.944E-06

     Pert. #  1: Fermi energy shift (Ry) =     2.9173E-02     0.0000E+00

      iter #   3 total cpu time :   392.5 secs   av.it.:  13.9
      thresh= 1.394E-04 alpha_mix =  0.700 |ddv_scf|^2 =  2.413E-06

     Pert. #  1: Fermi energy shift (Ry) =     3.8711E-03     0.0000E+00

      iter #   4 total cpu time :   398.8 secs   av.it.:  13.1
      thresh= 1.553E-04 alpha_mix =  0.700 |ddv_scf|^2 =  2.560E-08

     Pert. #  1: Fermi energy shift (Ry) =    -2.3584E-02     0.0000E+00

      iter #   5 total cpu time :   405.5 secs   av.it.:  14.1
      thresh= 1.600E-05 alpha_mix =  0.700 |ddv_scf|^2 =  1.178E-08

     Pert. #  1: Fermi energy shift (Ry) =    -6.6048E-03     0.0000E+00

      iter #   6 total cpu time :   412.6 secs   av.it.:  13.5
      thresh= 1.085E-05 alpha_mix =  0.700 |ddv_scf|^2 =  6.878E-10

     Pert. #  1: Fermi energy shift (Ry) =    -5.9611E-03     0.0000E+00

      iter #   7 total cpu time :   420.3 secs   av.it.:  13.5
      thresh= 2.623E-06 alpha_mix =  0.700 |ddv_scf|^2 =  9.852E-10

     Pert. #  1: Fermi energy shift (Ry) =    -6.3510E-03     0.0000E+00

      iter #   8 total cpu time :   427.3 secs   av.it.:  12.5
      thresh= 3.139E-06 alpha_mix =  0.700 |ddv_scf|^2 =  2.315E-11

     Pert. #  1: Fermi energy shift (Ry) =    -7.2134E-03     0.0000E+00

      iter #   9 total cpu time :   433.7 secs   av.it.:  14.0
      thresh= 4.811E-07 alpha_mix =  0.700 |ddv_scf|^2 =  8.798E-12

     Pert. #  1: Fermi energy shift (Ry) =    -6.8437E-03     0.0000E+00

      iter #  10 total cpu time :   441.2 secs   av.it.:  14.4
      thresh= 2.966E-07 alpha_mix =  0.700 |ddv_scf|^2 =  1.891E-11

     Pert. #  1: Fermi energy shift (Ry) =    -6.6614E-03     0.0000E+00

      iter #  11 total cpu time :   448.1 secs   av.it.:  13.4
      thresh= 4.348E-07 alpha_mix =  0.700 |ddv_scf|^2 =  2.151E-12

     Pert. #  1: Fermi energy shift (Ry) =    -7.0102E-03     0.0000E+00

      iter #  12 total cpu time :   455.1 secs   av.it.:  14.1
      thresh= 1.467E-07 alpha_mix =  0.700 |ddv_scf|^2 =  1.603E-12

     Pert. #  1: Fermi energy shift (Ry) =    -6.8700E-03     0.0000E+00

      iter #  13 total cpu time :   462.5 secs   av.it.:  13.4
      thresh= 1.266E-07 alpha_mix =  0.700 |ddv_scf|^2 =  3.595E-13

     End of self-consistent calculation

     Convergence has been achieved 


     Representation #  6 mode #   6

     Self-consistent Calculation

     Pert. #  1: Fermi energy shift (Ry) =     0.0000E+00     0.0000E+00

      iter #   1 total cpu time :   470.1 secs   av.it.:   8.8
      thresh= 1.000E-02 alpha_mix =  0.700 |ddv_scf|^2 =  2.689E-05

     Pert. #  1: Fermi energy shift (Ry) =     0.0000E+00     0.0000E+00

      iter #   2 total cpu time :   476.4 secs   av.it.:  13.4
      thresh= 5.186E-04 alpha_mix =  0.700 |ddv_scf|^2 =  4.924E-06

     Pert. #  1: Fermi energy shift (Ry) =     0.0000E+00     0.0000E+00

      iter #   3 total cpu time :   483.4 secs   av.it.:  13.1
      thresh= 2.219E-04 alpha_mix =  0.700 |ddv_scf|^2 =  8.976E-08

     Pert. #  1: Fermi energy shift (Ry) =     0.0000E+00     0.0000E+00

      iter #   4 total cpu time :   490.3 secs   av.it.:  12.9
      thresh= 2.996E-05 alpha_mix =  0.700 |ddv_scf|^2 =  8.164E-10

     Pert. #  1: Fermi energy shift (Ry) =     0.0000E+00     0.0000E+00

      iter #   5 total cpu time :   498.0 secs   av.it.:  13.5
      thresh= 2.857E-06 alpha_mix =  0.700 |ddv_scf|^2 =  1.453E-11

     Pert. #  1: Fermi energy shift (Ry) =     0.0000E+00     0.0000E+00

      iter #   6 total cpu time :   504.6 secs   av.it.:  12.1
      thresh= 3.811E-07 alpha_mix =  0.700 |ddv_scf|^2 =  2.497E-13

     End of self-consistent calculation

     Convergence has been achieved 


     Representation #  7 mode #   7

     Self-consistent Calculation

     Pert. #  1: Fermi energy shift (Ry) =     0.0000E+00     0.0000E+00

      iter #   1 total cpu time :   511.5 secs   av.it.:   8.2
      thresh= 1.000E-02 alpha_mix =  0.700 |ddv_scf|^2 =  2.868E-05

     Pert. #  1: Fermi energy shift (Ry) =     0.0000E+00     0.0000E+00

      iter #   2 total cpu time :   518.6 secs   av.it.:  13.0
      thresh= 5.355E-04 alpha_mix =  0.700 |ddv_scf|^2 =  5.371E-06

     Pert. #  1: Fermi energy shift (Ry) =     0.0000E+00     0.0000E+00

      iter #   3 total cpu time :   525.8 secs   av.it.:  12.9
      thresh= 2.318E-04 alpha_mix =  0.700 |ddv_scf|^2 =  8.611E-08

     Pert. #  1: Fermi energy shift (Ry) =     0.0000E+00     0.0000E+00

      iter #   4 total cpu time :   533.2 secs   av.it.:  13.1
      thresh= 2.934E-05 alpha_mix =  0.700 |ddv_scf|^2 =  1.000E-09

     Pert. #  1: Fermi energy shift (Ry) =     0.0000E+00     0.0000E+00

      iter #   5 total cpu time :   540.6 secs   av.it.:  13.0
      thresh= 3.163E-06 alpha_mix =  0.700 |ddv_scf|^2 =  2.655E-11

     Pert. #  1: Fermi energy shift (Ry) =     0.0000E+00     0.0000E+00

      iter #   6 total cpu time :   547.7 secs   av.it.:  12.6
      thresh= 5.153E-07 alpha_mix =  0.700 |ddv_scf|^2 =  1.437E-13

     End of self-consistent calculation

     Convergence has been achieved 


     Representation #  8 mode #   8

     Self-consistent Calculation

     Pert. #  1: Fermi energy shift (Ry) =     0.0000E+00     0.0000E+00

      iter #   1 total cpu time :   554.8 secs   av.it.:   8.2
      thresh= 1.000E-02 alpha_mix =  0.700 |ddv_scf|^2 =  2.831E-05

     Pert. #  1: Fermi energy shift (Ry) =     0.0000E+00     0.0000E+00

      iter #   2 total cpu time :   560.9 secs   av.it.:  13.2
      thresh= 5.321E-04 alpha_mix =  0.700 |ddv_scf|^2 =  5.585E-06

     Pert. #  1: Fermi energy shift (Ry) =     0.0000E+00     0.0000E+00

      iter #   3 total cpu time :   568.0 secs   av.it.:  13.1
      thresh= 2.363E-04 alpha_mix =  0.700 |ddv_scf|^2 =  7.968E-08

     Pert. #  1: Fermi energy shift (Ry) =     0.0000E+00     0.0000E+00

      iter #   4 total cpu time :   574.7 secs   av.it.:  12.9
      thresh= 2.823E-05 alpha_mix =  0.700 |ddv_scf|^2 =  1.042E-09

     Pert. #  1: Fermi energy shift (Ry) =     0.0000E+00     0.0000E+00

      iter #   5 total cpu time :   581.1 secs   av.it.:  13.4
      thresh= 3.228E-06 alpha_mix =  0.700 |ddv_scf|^2 =  2.619E-11

     Pert. #  1: Fermi energy shift (Ry) =     0.0000E+00     0.0000E+00

      iter #   6 total cpu time :   587.1 secs   av.it.:  12.5
      thresh= 5.118E-07 alpha_mix =  0.700 |ddv_scf|^2 =  3.791E-13

     End of self-consistent calculation

     Convergence has been achieved 


     Representation #  9 mode #   9

     Self-consistent Calculation

     Pert. #  1: Fermi energy shift (Ry) =     0.0000E+00     0.0000E+00

      iter #   1 total cpu time :   593.4 secs   av.it.:   7.5
      thresh= 1.000E-02 alpha_mix =  0.700 |ddv_scf|^2 =  5.687E-06

     Pert. #  1: Fermi energy shift (Ry) =     0.0000E+00     0.0000E+00

      iter #   2 total cpu time :   601.1 secs   av.it.:  13.6
      thresh= 2.385E-04 alpha_mix =  0.700 |ddv_scf|^2 =  1.333E-06

     Pert. #  1: Fermi energy shift (Ry) =     0.0000E+00     0.0000E+00

      iter #   3 total cpu time :   608.3 secs   av.it.:  12.9
      thresh= 1.155E-04 alpha_mix =  0.700 |ddv_scf|^2 =  4.910E-09

     Pert. #  1: Fermi energy shift (Ry) =     0.0000E+00     0.0000E+00

      iter #   4 total cpu time :   615.6 secs   av.it.:  13.6
      thresh= 7.007E-06 alpha_mix =  0.700 |ddv_scf|^2 =  1.012E-10

     Pert. #  1: Fermi energy shift (Ry) =     0.0000E+00     0.0000E+00

      iter #   5 total cpu time :   622.8 secs   av.it.:  12.9
      thresh= 1.006E-06 alpha_mix =  0.700 |ddv_scf|^2 =  1.994E-12

     Pert. #  1: Fermi energy shift (Ry) =     0.0000E+00     0.0000E+00

      iter #   6 total cpu time :   629.6 secs   av.it.:  12.4
      thresh= 1.412E-07 alpha_mix =  0.700 |ddv_scf|^2 =  4.094E-14

     End of self-consistent calculation

     Convergence has been achieved 


     Representation # 10 mode #  10

     Self-consistent Calculation

     Pert. #  1: Fermi energy shift (Ry) =     0.0000E+00     0.0000E+00

      iter #   1 total cpu time :   636.5 secs   av.it.:   8.8
      thresh= 1.000E-02 alpha_mix =  0.700 |ddv_scf|^2 =  2.689E-05

     Pert. #  1: Fermi energy shift (Ry) =     0.0000E+00     0.0000E+00

      iter #   2 total cpu time :   642.9 secs   av.it.:  13.2
      thresh= 5.186E-04 alpha_mix =  0.700 |ddv_scf|^2 =  4.927E-06

     Pert. #  1: Fermi energy shift (Ry) =     0.0000E+00     0.0000E+00

      iter #   3 total cpu time :   649.0 secs   av.it.:  13.1
      thresh= 2.220E-04 alpha_mix =  0.700 |ddv_scf|^2 =  8.966E-08

     Pert. #  1: Fermi energy shift (Ry) =     0.0000E+00     0.0000E+00

      iter #   4 total cpu time :   656.7 secs   av.it.:  12.9
      thresh= 2.994E-05 alpha_mix =  0.700 |ddv_scf|^2 =  8.229E-10

     Pert. #  1: Fermi energy shift (Ry) =     0.0000E+00     0.0000E+00

      iter #   5 total cpu time :   664.4 secs   av.it.:  13.4
      thresh= 2.869E-06 alpha_mix =  0.700 |ddv_scf|^2 =  1.460E-11

     Pert. #  1: Fermi energy shift (Ry) =     0.0000E+00     0.0000E+00

      iter #   6 total cpu time :   670.9 secs   av.it.:  12.1
      thresh= 3.821E-07 alpha_mix =  0.700 |ddv_scf|^2 =  2.277E-13

     End of self-consistent calculation

     Convergence has been achieved 


     Representation # 11 mode #  11

     Self-consistent Calculation

     Pert. #  1: Fermi energy shift (Ry) =     0.0000E+00     0.0000E+00

      iter #   1 total cpu time :   677.5 secs   av.it.:   8.8
      thresh= 1.000E-02 alpha_mix =  0.700 |ddv_scf|^2 =  2.687E-05

     Pert. #  1: Fermi energy shift (Ry) =     0.0000E+00     0.0000E+00

      iter #   2 total cpu time :   683.8 secs   av.it.:  13.4
      thresh= 5.184E-04 alpha_mix =  0.700 |ddv_scf|^2 =  4.916E-06

     Pert. #  1: Fermi energy shift (Ry) =     0.0000E+00     0.0000E+00

      iter #   3 total cpu time :   690.0 secs   av.it.:  13.1
      thresh= 2.217E-04 alpha_mix =  0.700 |ddv_scf|^2 =  8.958E-08

     Pert. #  1: Fermi energy shift (Ry) =     0.0000E+00     0.0000E+00

      iter #   4 total cpu time :   696.7 secs   av.it.:  12.9
      thresh= 2.993E-05 alpha_mix =  0.700 |ddv_scf|^2 =  8.083E-10

     Pert. #  1: Fermi energy shift (Ry) =     0.0000E+00     0.0000E+00

      iter #   5 total cpu time :   703.9 secs   av.it.:  13.5
      thresh= 2.843E-06 alpha_mix =  0.700 |ddv_scf|^2 =  1.431E-11

     Pert. #  1: Fermi energy shift (Ry) =     0.0000E+00     0.0000E+00

      iter #   6 total cpu time :   711.7 secs   av.it.:  12.1
      thresh= 3.783E-07 alpha_mix =  0.700 |ddv_scf|^2 =  2.492E-13

     End of self-consistent calculation

     Convergence has been achieved 


     Representation # 12 mode #  12

     Self-consistent Calculation

     Pert. #  1: Fermi energy shift (Ry) =     0.0000E+00     0.0000E+00

      iter #   1 total cpu time :   718.3 secs   av.it.:   8.8
      thresh= 1.000E-02 alpha_mix =  0.700 |ddv_scf|^2 =  2.688E-05

     Pert. #  1: Fermi energy shift (Ry) =     0.0000E+00     0.0000E+00

      iter #   2 total cpu time :   726.5 secs   av.it.:  13.2
      thresh= 5.184E-04 alpha_mix =  0.700 |ddv_scf|^2 =  4.917E-06

     Pert. #  1: Fermi energy shift (Ry) =     0.0000E+00     0.0000E+00

      iter #   3 total cpu time :   733.4 secs   av.it.:  13.1
      thresh= 2.218E-04 alpha_mix =  0.700 |ddv_scf|^2 =  8.950E-08

     Pert. #  1: Fermi energy shift (Ry) =     0.0000E+00     0.0000E+00

      iter #   4 total cpu time :   739.7 secs   av.it.:  12.9
      thresh= 2.992E-05 alpha_mix =  0.700 |ddv_scf|^2 =  8.151E-10

     Pert. #  1: Fermi energy shift (Ry) =     0.0000E+00     0.0000E+00

      iter #   5 total cpu time :   745.7 secs   av.it.:  13.4
      thresh= 2.855E-06 alpha_mix =  0.700 |ddv_scf|^2 =  1.441E-11

     Pert. #  1: Fermi energy shift (Ry) =     0.0000E+00     0.0000E+00

      iter #   6 total cpu time :   751.6 secs   av.it.:  12.1
      thresh= 3.797E-07 alpha_mix =  0.700 |ddv_scf|^2 =  2.255E-13

     End of self-consistent calculation

     Convergence has been achieved 


     Representation # 13 mode #  13

     Self-consistent Calculation

     Pert. #  1: Fermi energy shift (Ry) =     0.0000E+00     0.0000E+00

      iter #   1 total cpu time :   758.6 secs   av.it.:   8.2
      thresh= 1.000E-02 alpha_mix =  0.700 |ddv_scf|^2 =  2.830E-05

     Pert. #  1: Fermi energy shift (Ry) =     0.0000E+00     0.0000E+00

      iter #   2 total cpu time :   765.6 secs   av.it.:  13.2
      thresh= 5.319E-04 alpha_mix =  0.700 |ddv_scf|^2 =  5.578E-06

     Pert. #  1: Fermi energy shift (Ry) =     0.0000E+00     0.0000E+00

      iter #   3 total cpu time :   772.9 secs   av.it.:  13.1
      thresh= 2.362E-04 alpha_mix =  0.700 |ddv_scf|^2 =  7.966E-08

     Pert. #  1: Fermi energy shift (Ry) =     0.0000E+00     0.0000E+00

      iter #   4 total cpu time :   780.3 secs   av.it.:  12.9
      thresh= 2.822E-05 alpha_mix =  0.700 |ddv_scf|^2 =  1.044E-09

     Pert. #  1: Fermi energy shift (Ry) =     0.0000E+00     0.0000E+00

      iter #   5 total cpu time :   788.3 secs   av.it.:  13.4
      thresh= 3.231E-06 alpha_mix =  0.700 |ddv_scf|^2 =  2.629E-11

     Pert. #  1: Fermi energy shift (Ry) =     0.0000E+00     0.0000E+00

      iter #   6 total cpu time :   795.5 secs   av.it.:  12.4
      thresh= 5.128E-07 alpha_mix =  0.700 |ddv_scf|^2 =  3.794E-13

     End of self-consistent calculation

     Convergence has been achieved 


     Representation # 14 mode #  14

     Self-consistent Calculation

     Pert. #  1: Fermi energy shift (Ry) =     0.0000E+00     0.0000E+00

      iter #   1 total cpu time :   801.9 secs   av.it.:   7.5
      thresh= 1.000E-02 alpha_mix =  0.700 |ddv_scf|^2 =  5.684E-06

     Pert. #  1: Fermi energy shift (Ry) =     0.0000E+00     0.0000E+00

      iter #   2 total cpu time :   808.9 secs   av.it.:  13.6
      thresh= 2.384E-04 alpha_mix =  0.700 |ddv_scf|^2 =  1.331E-06

     Pert. #  1: Fermi energy shift (Ry) =     0.0000E+00     0.0000E+00

      iter #   3 total cpu time :   816.3 secs   av.it.:  12.9
      thresh= 1.154E-04 alpha_mix =  0.700 |ddv_scf|^2 =  4.912E-09

     Pert. #  1: Fermi energy shift (Ry) =     0.0000E+00     0.0000E+00

      iter #   4 total cpu time :   823.2 secs   av.it.:  13.6
      thresh= 7.009E-06 alpha_mix =  0.700 |ddv_scf|^2 =  1.009E-10

     Pert. #  1: Fermi energy shift (Ry) =     0.0000E+00     0.0000E+00

      iter #   5 total cpu time :   829.9 secs   av.it.:  12.9
      thresh= 1.005E-06 alpha_mix =  0.700 |ddv_scf|^2 =  1.963E-12

     Pert. #  1: Fermi energy shift (Ry) =     0.0000E+00     0.0000E+00

      iter #   6 total cpu time :   836.0 secs   av.it.:  12.4
      thresh= 1.401E-07 alpha_mix =  0.700 |ddv_scf|^2 =  4.065E-14

     End of self-consistent calculation

     Convergence has been achieved 


     Representation # 15 mode #  15

     Self-consistent Calculation

     Pert. #  1: Fermi energy shift (Ry) =     0.0000E+00     0.0000E+00

      iter #   1 total cpu time :   842.4 secs   av.it.:   8.2
      thresh= 1.000E-02 alpha_mix =  0.700 |ddv_scf|^2 =  2.867E-05

     Pert. #  1: Fermi energy shift (Ry) =     0.0000E+00     0.0000E+00

      iter #   2 total cpu time :   849.4 secs   av.it.:  12.9
      thresh= 5.355E-04 alpha_mix =  0.700 |ddv_scf|^2 =  5.365E-06

     Pert. #  1: Fermi energy shift (Ry) =     0.0000E+00     0.0000E+00

      iter #   3 total cpu time :   855.7 secs   av.it.:  12.9
      thresh= 2.316E-04 alpha_mix =  0.700 |ddv_scf|^2 =  8.622E-08

     Pert. #  1: Fermi energy shift (Ry) =     0.0000E+00     0.0000E+00

      iter #   4 total cpu time :   862.0 secs   av.it.:  13.1
      thresh= 2.936E-05 alpha_mix =  0.700 |ddv_scf|^2 =  1.014E-09

     Pert. #  1: Fermi energy shift (Ry) =     0.0000E+00     0.0000E+00

      iter #   5 total cpu time :   869.7 secs   av.it.:  13.0
      thresh= 3.184E-06 alpha_mix =  0.700 |ddv_scf|^2 =  2.742E-11

     Pert. #  1: Fermi energy shift (Ry) =     0.0000E+00     0.0000E+00

      iter #   6 total cpu time :   876.1 secs   av.it.:  12.8
      thresh= 5.237E-07 alpha_mix =  0.700 |ddv_scf|^2 =  1.456E-13

     End of self-consistent calculation

     Convergence has been achieved 

     Number of q in the star =    1
     List of q in the star:
          1   0.000000000   0.000000000   0.000000000

     Diagonalizing the dynamical matrix

     q = (    0.000000000   0.000000000   0.000000000 ) 

 **************************************************************************
     freq (    1) =      -0.918376 [THz] =     -30.633735 [cm-1]
     freq (    2) =       0.433215 [THz] =      14.450497 [cm-1]
     freq (    3) =       1.425569 [THz] =      47.551864 [cm-1]
     freq (    4) =       3.154470 [THz] =     105.221808 [cm-1]
     freq (    5) =       3.156035 [THz] =     105.273981 [cm-1]
     freq (    6) =       3.199999 [THz] =     106.740476 [cm-1]
     freq (    7) =       4.434778 [THz] =     147.928280 [cm-1]
     freq (    8) =       4.498929 [THz] =     150.068117 [cm-1]
     freq (    9) =       4.837984 [THz] =     161.377785 [cm-1]
     freq (   10) =       5.721288 [THz] =     190.841636 [cm-1]
     freq (   11) =       5.755023 [THz] =     191.966894 [cm-1]
     freq (   12) =       5.799789 [THz] =     193.460144 [cm-1]
     freq (   13) =      21.623422 [THz] =     721.279736 [cm-1]
     freq (   14) =      21.637084 [THz] =     721.735431 [cm-1]
     freq (   15) =      23.085763 [THz] =     770.058165 [cm-1]
 **************************************************************************

     Mode symmetry, C_2v (mm2)  point group:

     freq (  1 -  1) =        -30.6  [cm-1]   --> A_1  D_1  S_1   I+R
     freq (  2 -  2) =         14.5  [cm-1]   --> B_2  D_4  S_4   I+R
     freq (  3 -  3) =         47.6  [cm-1]   --> B_1  D_3  S_3   I+R
     freq (  4 -  4) =        105.2  [cm-1]   --> A_1  D_1  S_1   I+R
     freq (  5 -  5) =        105.3  [cm-1]   --> B_2  D_4  S_4   I+R
     freq (  6 -  6) =        106.7  [cm-1]   --> B_1  D_3  S_3   I+R
     freq (  7 -  7) =        147.9  [cm-1]   --> B_2  D_4  S_4   I+R
     freq (  8 -  8) =        150.1  [cm-1]   --> A_1  D_1  S_1   I+R
     freq (  9 -  9) =        161.4  [cm-1]   --> B_1  D_3  S_3   I+R
     freq ( 10 - 10) =        190.8  [cm-1]   --> A_1  D_1  S_1   I+R
     freq ( 11 - 11) =        192.0  [cm-1]   --> B_2  D_4  S_4   I+R
     freq ( 12 - 12) =        193.5  [cm-1]   --> B_1  D_3  S_3   I+R
     freq ( 13 - 13) =        721.3  [cm-1]   --> B_2  D_4  S_4   I+R
     freq ( 14 - 14) =        721.7  [cm-1]   --> B_1  D_3  S_3   I+R
     freq ( 15 - 15) =        770.1  [cm-1]   --> A_1  D_1  S_1   I+R

     Calculation of q =    0.0000000   0.0000000  -0.5000000

   Info: using nr1, nr2, nr3 values from input

   Info: using nr1, nr2, nr3 values from input

     Parallelization info
     --------------------
     sticks:   dense  smooth     PW     G-vecs:    dense   smooth      PW
     Min          32      32      9                  512      512      86
     Max          33      33     11                  514      514      90
     Sum         481     481    145                 7689     7689    1309



     bravais-lattice index     =            0
     lattice parameter (alat)  =       7.0055  a.u.
     unit-cell volume          =     343.7659 (a.u.)^3
     number of atoms/cell      =            5
     number of atomic types    =            2
     number of electrons       =        49.00
     number of Kohn-Sham states=           30
     kinetic-energy cutoff     =      30.0000  Ry
     charge density cutoff     =     120.0000  Ry
     Exchange-correlation      =  SLA  PW   PBX  PBC ( 1  4  3  4 0 0)

     celldm(1)=   7.005497  celldm(2)=   0.000000  celldm(3)=   0.000000
     celldm(4)=   0.000000  celldm(5)=   0.000000  celldm(6)=   0.000000

     crystal axes: (cart. coord. in units of alat)
               a(1) = (   1.000000   0.000000   0.000000 )  
               a(2) = (   0.000000   0.999876   0.000000 )  
               a(3) = (   0.000000   0.000000   1.000000 )  

     reciprocal axes: (cart. coord. in units 2 pi/alat)
               b(1) = (  1.000000  0.000000  0.000000 )  
               b(2) = (  0.000000  1.000124  0.000000 )  
               b(3) = (  0.000000  0.000000  1.000000 )  


     PseudoPot. # 1 for Cu read from file:
     ../../pseudo/Cu.pbe-dn-kjpaw_psl.1.0.0.UPF
     MD5 check sum: d0575d8777d02cc05b6679c1e3a9a036
     Pseudo is Projector augmented-wave + core cor, Zval = 11.0
     Generated using "atomic" code by A. Dal Corso  v.6.3
     Shape of augmentation charge: PSQ
     Using radial grid of 1199 points,  6 beta functions with: 
                l(1) =   0
                l(2) =   0
                l(3) =   1
                l(4) =   1
                l(5) =   2
                l(6) =   2
     Q(r) pseudized with 0 coefficients 


     PseudoPot. # 2 for  N read from file:
     ../../pseudo/N.pbe-n-kjpaw_psl.1.0.0.UPF
     MD5 check sum: 57d39628416b425e94b4a4c0ec66cafa
     Pseudo is Projector augmented-wave + core cor, Zval =  5.0
     Generated using "atomic" code by A. Dal Corso  v.6.3
     Shape of augmentation charge: PSQ
     Using radial grid of 1085 points,  4 beta functions with: 
                l(1) =   0
                l(2) =   0
                l(3) =   1
                l(4) =   1
     Q(r) pseudized with 0 coefficients 


     atomic species   valence    mass     pseudopotential
        Cu            11.00    63.54600     Cu( 1.00)
        N              5.00    14.00700      N( 1.00)

     Starting magnetic structure 
     atomic species   magnetization
        Cu           0.000
        N            0.000

      4 Sym. Ops. (no inversion) found



   Cartesian axes

     site n.     atom                  positions (alat units)
         1           Cu  tau(   1) = (   0.0000000   0.0000000   0.0000000  )
         2           Cu  tau(   2) = (   0.5000000   0.4999378   0.0000000  )
         3           Cu  tau(   3) = (   0.0000000   0.4999378   0.4749170  )
         4           Cu  tau(   4) = (   0.5000000   0.0000000   0.4747944  )
         5           N   tau(   5) = (   0.0000000   0.4999378   0.9976365  )

     number of k points=    16  gaussian smearing, width (Ry)=  0.0200
                       cart. coord. in units 2pi/alat
        k(    1) = (   0.1250000   0.1250155   0.1250000), wk =   0.1250000
        k(    2) = (   0.1250000   0.1250155  -0.3750000), wk =   0.0000000
        k(    3) = (   0.1250000   0.1250155   0.3750000), wk =   0.1250000
        k(    4) = (   0.1250000   0.1250155  -0.1250000), wk =   0.0000000
        k(    5) = (   0.1250000   0.3750466   0.1250000), wk =   0.1250000
        k(    6) = (   0.1250000   0.3750466  -0.3750000), wk =   0.0000000
        k(    7) = (   0.1250000   0.3750466   0.3750000), wk =   0.1250000
        k(    8) = (   0.1250000   0.3750466  -0.1250000), wk =   0.0000000
        k(    9) = (   0.3750000   0.1250155   0.3750000), wk =   0.1250000
        k(   10) = (   0.3750000   0.1250155  -0.1250000), wk =   0.0000000
        k(   11) = (   0.3750000   0.3750466   0.3750000), wk =   0.1250000
        k(   12) = (   0.3750000   0.3750466  -0.1250000), wk =   0.0000000
        k(   13) = (   0.3750000  -0.1250155   0.1250000), wk =   0.1250000
        k(   14) = (   0.3750000  -0.1250155  -0.3750000), wk =   0.0000000
        k(   15) = (   0.3750000  -0.3750466   0.1250000), wk =   0.1250000
        k(   16) = (   0.3750000  -0.3750466  -0.3750000), wk =   0.0000000

     Dense  grid:     7689 G-vectors     FFT dimensions: (  25,  25,  25)

     Estimated max dynamical RAM per process >       0.70Mb

     Estimated total allocated dynamical RAM >      10.52Mb
     Generating pointlists ...

     Check: negative/imaginary core charge=   -0.000075    0.000000

     The potential is recalculated from file :
     ./tmp/_ph0/Cu2N.save/charge-density.dat

     Starting wfc are   40 atomic wfcs
     Checking if some PAW data can be deallocated... 

     Band Structure Calculation
     Davidson diagonalization with overlap

     ethr =  2.04E-11,  avg # of iterations = 15.0

     total cpu time spent up to now is        9.3 secs

     End of band structure calculation

 ------ SPIN UP ------------


          k = 0.1250 0.1250 0.1250 (   952 PWs)   bands (ev):

    -4.1955   5.9831   7.0481   7.0852   7.4774   8.8259   8.8343   8.8808
     8.9309   9.1581  10.1191  10.2585  10.2664  10.4650  10.4763  11.0144
    11.2652  11.4306  11.4462  11.7338  11.7346  11.8173  12.0147  12.0212
    14.4776  17.2066  17.2250  17.4490  21.0727  21.0806

          k = 0.1250 0.1250-0.3750 (   950 PWs)   bands (ev):

    -3.8342   5.0655   6.6509   6.6671   7.6551   8.7824   9.0655   9.3570
     9.3579   9.4099   9.8887  10.2089  10.2644  10.4719  10.5366  10.8111
    11.0988  11.3734  11.4472  11.5508  11.6323  11.7764  11.9530  12.2369
    15.0334  15.5318  17.2472  18.9154  20.4476  21.9166

          k = 0.1250 0.1250 0.3750 (   950 PWs)   bands (ev):

    -3.8342   5.0655   6.6509   6.6671   7.6551   8.7824   9.0655   9.3570
     9.3579   9.4099   9.8887  10.2089  10.2644  10.4719  10.5366  10.8111
    11.0988  11.3734  11.4472  11.5508  11.6323  11.7764  11.9530  12.2369
    15.0334  15.5318  17.2472  18.9154  20.4476  21.9166

          k = 0.1250 0.1250-0.1250 (   952 PWs)   bands (ev):

    -4.1955   5.9831   7.0481   7.0852   7.4774   8.8259   8.8343   8.8808
     8.9309   9.1581  10.1191  10.2585  10.2664  10.4650  10.4763  11.0144
    11.2652  11.4306  11.4462  11.7338  11.7346  11.8173  12.0147  12.0212
    14.4776  17.2066  17.2250  17.4490  21.0727  21.0806

          k = 0.1250 0.3750 0.1250 (   950 PWs)   bands (ev):

    -3.8321   5.0296   6.6365   6.7305   7.6745   8.7740   9.0910   9.3255
     9.3774   9.4210   9.8938  10.1677  10.2514  10.4733  10.5233  10.7892
    11.0827  11.3575  11.4629  11.5740  11.6312  11.7861  11.9610  12.2445
    15.0691  15.4839  17.2399  18.9242  20.4379  21.9148

          k = 0.1250 0.3750-0.3750 (   953 PWs)   bands (ev):

    -3.4706   5.0821   5.1517   6.4191   8.2050   9.1658   9.2059   9.5084
     9.5948   9.6558   9.8816   9.9695  10.0286  10.4252  10.5005  10.6628
    10.9354  11.4278  11.4510  11.5207  11.5986  11.7320  12.0538  12.7268
    13.8404  16.2930  16.7855  18.7041  20.1501  21.9005

          k = 0.1250 0.3750 0.3750 (   953 PWs)   bands (ev):

    -3.4706   5.0821   5.1517   6.4191   8.2050   9.1658   9.2059   9.5084
     9.5948   9.6558   9.8816   9.9695  10.0286  10.4252  10.5005  10.6628
    10.9354  11.4278  11.4510  11.5207  11.5986  11.7320  12.0538  12.7268
    13.8404  16.2930  16.7855  18.7041  20.1501  21.9005

          k = 0.1250 0.3750-0.1250 (   950 PWs)   bands (ev):

    -3.8321   5.0296   6.6365   6.7305   7.6745   8.7740   9.0910   9.3255
     9.3774   9.4210   9.8938  10.1677  10.2514  10.4733  10.5233  10.7892
    11.0827  11.3575  11.4629  11.5740  11.6312  11.7861  11.9610  12.2445
    15.0691  15.4839  17.2399  18.9242  20.4379  21.9148

          k = 0.3750 0.1250 0.3750 (   953 PWs)   bands (ev):

    -3.4710   5.0825   5.1519   6.4193   8.2052   9.1658   9.2066   9.5090
     9.5945   9.6565   9.8819   9.9694  10.0279  10.4247  10.5005  10.6627
    10.9351  11.4277  11.4510  11.5204  11.5983  11.7316  12.0532  12.7256
    13.8397  16.2938  16.7861  18.7050  20.1507  21.9016

          k = 0.3750 0.1250-0.1250 (   950 PWs)   bands (ev):

    -3.8324   5.0299   6.6367   6.7306   7.6751   8.7739   9.0914   9.3260
     9.3773   9.4214   9.8936  10.1670  10.2503  10.4736  10.5237  10.7893
    11.0829  11.3576  11.4630  11.5730  11.6313  11.7854  11.9609  12.2434
    15.0696  15.4843  17.2402  18.9244  20.4385  21.9154

          k = 0.3750 0.3750 0.3750 (   958 PWs)   bands (ev):

    -3.0959   4.9708   4.9748   5.0603   8.3544   9.1517   9.3492   9.3765
     9.8566   9.8700  10.0666  10.3407  10.3531  10.5011  10.5065  10.6977
    11.1973  11.4189  11.5017  11.5060  11.6297  11.6372  12.7221  12.7258
    14.5058  14.5148  14.7104  18.1085  20.5222  21.5251

          k = 0.3750 0.3750-0.1250 (   953 PWs)   bands (ev):

    -3.4689   5.0786   5.1217   6.4611   8.2095   9.1775   9.2083   9.5113
     9.5788   9.6630   9.8792   9.9731  10.0104  10.4025  10.5018  10.6630
    10.9490  11.4135  11.4399  11.5278  11.6139  11.7309  12.0593  12.7455
    13.8289  16.2892  16.7814  18.6817  20.1469  21.8924

          k = 0.3750-0.1250 0.1250 (   950 PWs)   bands (ev):

    -3.8324   5.0299   6.6367   6.7306   7.6751   8.7739   9.0914   9.3260
     9.3773   9.4214   9.8936  10.1670  10.2503  10.4736  10.5237  10.7893
    11.0829  11.3576  11.4630  11.5730  11.6313  11.7854  11.9609  12.2434
    15.0696  15.4843  17.2402  18.9244  20.4385  21.9154

          k = 0.3750-0.1250-0.3750 (   953 PWs)   bands (ev):

    -3.4710   5.0825   5.1519   6.4193   8.2052   9.1658   9.2066   9.5090
     9.5945   9.6565   9.8819   9.9694  10.0279  10.4247  10.5005  10.6627
    10.9351  11.4277  11.4510  11.5204  11.5983  11.7316  12.0532  12.7256
    13.8397  16.2938  16.7861  18.7050  20.1507  21.9016

          k = 0.3750-0.3750 0.1250 (   953 PWs)   bands (ev):

    -3.4689   5.0786   5.1217   6.4611   8.2095   9.1775   9.2083   9.5113
     9.5788   9.6630   9.8792   9.9731  10.0104  10.4025  10.5018  10.6630
    10.9490  11.4135  11.4399  11.5278  11.6139  11.7309  12.0593  12.7455
    13.8289  16.2892  16.7814  18.6817  20.1469  21.8924

          k = 0.3750-0.3750-0.3750 (   958 PWs)   bands (ev):

    -3.0959   4.9708   4.9748   5.0603   8.3544   9.1517   9.3492   9.3765
     9.8566   9.8700  10.0666  10.3407  10.3531  10.5011  10.5065  10.6977
    11.1973  11.4189  11.5017  11.5060  11.6297  11.6372  12.7221  12.7258
    14.5058  14.5148  14.7104  18.1085  20.5222  21.5251

 ------ SPIN DOWN ----------


          k = 0.1250 0.1250 0.1250 (   952 PWs)   bands (ev):

    -4.1955   5.9831   7.0481   7.0852   7.4774   8.8259   8.8343   8.8808
     8.9309   9.1581  10.1191  10.2585  10.2664  10.4650  10.4763  11.0144
    11.2652  11.4306  11.4462  11.7338  11.7346  11.8173  12.0147  12.0212
    14.4776  17.2066  17.2250  17.4490  21.0727  21.0806

          k = 0.1250 0.1250-0.3750 (   950 PWs)   bands (ev):

    -3.8342   5.0655   6.6509   6.6671   7.6551   8.7824   9.0655   9.3570
     9.3579   9.4099   9.8887  10.2089  10.2644  10.4719  10.5366  10.8111
    11.0988  11.3734  11.4472  11.5508  11.6323  11.7764  11.9530  12.2369
    15.0334  15.5318  17.2472  18.9154  20.4476  21.9166

          k = 0.1250 0.1250 0.3750 (   950 PWs)   bands (ev):

    -3.8342   5.0655   6.6509   6.6671   7.6551   8.7824   9.0655   9.3570
     9.3579   9.4099   9.8887  10.2089  10.2644  10.4719  10.5366  10.8111
    11.0988  11.3734  11.4472  11.5508  11.6323  11.7764  11.9530  12.2369
    15.0334  15.5318  17.2472  18.9154  20.4476  21.9166

          k = 0.1250 0.1250-0.1250 (   952 PWs)   bands (ev):

    -4.1955   5.9831   7.0481   7.0852   7.4774   8.8259   8.8343   8.8808
     8.9309   9.1581  10.1191  10.2585  10.2664  10.4650  10.4763  11.0144
    11.2652  11.4306  11.4462  11.7338  11.7346  11.8173  12.0147  12.0212
    14.4776  17.2066  17.2250  17.4490  21.0727  21.0806

          k = 0.1250 0.3750 0.1250 (   950 PWs)   bands (ev):

    -3.8321   5.0296   6.6365   6.7305   7.6745   8.7741   9.0910   9.3255
     9.3774   9.4210   9.8938  10.1677  10.2514  10.4733  10.5233  10.7892
    11.0827  11.3575  11.4629  11.5740  11.6312  11.7861  11.9610  12.2445
    15.0691  15.4839  17.2399  18.9242  20.4379  21.9148

          k = 0.1250 0.3750-0.3750 (   953 PWs)   bands (ev):

    -3.4706   5.0821   5.1517   6.4191   8.2050   9.1658   9.2059   9.5084
     9.5948   9.6558   9.8816   9.9695  10.0286  10.4252  10.5005  10.6628
    10.9354  11.4278  11.4510  11.5207  11.5986  11.7320  12.0538  12.7268
    13.8404  16.2930  16.7855  18.7041  20.1501  21.9005

          k = 0.1250 0.3750 0.3750 (   953 PWs)   bands (ev):

    -3.4706   5.0821   5.1517   6.4191   8.2050   9.1658   9.2059   9.5084
     9.5948   9.6558   9.8816   9.9695  10.0286  10.4252  10.5005  10.6628
    10.9354  11.4278  11.4510  11.5207  11.5986  11.7320  12.0538  12.7268
    13.8404  16.2930  16.7855  18.7041  20.1501  21.9005

          k = 0.1250 0.3750-0.1250 (   950 PWs)   bands (ev):

    -3.8321   5.0296   6.6365   6.7305   7.6745   8.7741   9.0910   9.3255
     9.3774   9.4210   9.8938  10.1677  10.2514  10.4733  10.5233  10.7892
    11.0827  11.3575  11.4629  11.5740  11.6312  11.7861  11.9610  12.2445
    15.0691  15.4839  17.2399  18.9242  20.4379  21.9148

          k = 0.3750 0.1250 0.3750 (   953 PWs)   bands (ev):

    -3.4710   5.0825   5.1519   6.4193   8.2052   9.1658   9.2066   9.5090
     9.5945   9.6565   9.8819   9.9694  10.0279  10.4247  10.5005  10.6627
    10.9351  11.4277  11.4510  11.5204  11.5983  11.7316  12.0532  12.7256
    13.8397  16.2938  16.7861  18.7050  20.1507  21.9016

          k = 0.3750 0.1250-0.1250 (   950 PWs)   bands (ev):

    -3.8324   5.0299   6.6367   6.7306   7.6751   8.7739   9.0914   9.3260
     9.3773   9.4214   9.8936  10.1670  10.2503  10.4736  10.5237  10.7893
    11.0829  11.3576  11.4630  11.5730  11.6313  11.7854  11.9609  12.2434
    15.0696  15.4843  17.2402  18.9244  20.4385  21.9154

          k = 0.3750 0.3750 0.3750 (   958 PWs)   bands (ev):

    -3.0959   4.9708   4.9748   5.0603   8.3544   9.1517   9.3492   9.3765
     9.8566   9.8700  10.0666  10.3407  10.3531  10.5011  10.5065  10.6977
    11.1973  11.4189  11.5017  11.5060  11.6297  11.6372  12.7221  12.7258
    14.5058  14.5148  14.7104  18.1085  20.5222  21.5251

          k = 0.3750 0.3750-0.1250 (   953 PWs)   bands (ev):

    -3.4689   5.0786   5.1217   6.4611   8.2095   9.1775   9.2083   9.5113
     9.5788   9.6630   9.8792   9.9731  10.0105  10.4025  10.5018  10.6630
    10.9490  11.4135  11.4399  11.5278  11.6139  11.7309  12.0593  12.7455
    13.8289  16.2892  16.7814  18.6817  20.1469  21.8924

          k = 0.3750-0.1250 0.1250 (   950 PWs)   bands (ev):

    -3.8324   5.0299   6.6367   6.7306   7.6751   8.7739   9.0914   9.3260
     9.3773   9.4214   9.8936  10.1670  10.2503  10.4736  10.5237  10.7893
    11.0829  11.3576  11.4630  11.5730  11.6313  11.7854  11.9609  12.2434
    15.0696  15.4843  17.2402  18.9244  20.4385  21.9154

          k = 0.3750-0.1250-0.3750 (   953 PWs)   bands (ev):

    -3.4710   5.0825   5.1519   6.4193   8.2052   9.1658   9.2066   9.5090
     9.5945   9.6565   9.8819   9.9694  10.0279  10.4247  10.5005  10.6627
    10.9351  11.4277  11.4510  11.5204  11.5983  11.7316  12.0532  12.7256
    13.8397  16.2938  16.7861  18.7050  20.1507  21.9016

          k = 0.3750-0.3750 0.1250 (   953 PWs)   bands (ev):

    -3.4689   5.0786   5.1217   6.4611   8.2095   9.1775   9.2083   9.5113
     9.5788   9.6630   9.8792   9.9731  10.0105  10.4025  10.5018  10.6630
    10.9490  11.4135  11.4399  11.5278  11.6139  11.7309  12.0593  12.7455
    13.8289  16.2892  16.7814  18.6817  20.1469  21.8924

          k = 0.3750-0.3750-0.3750 (   958 PWs)   bands (ev):

    -3.0959   4.9708   4.9748   5.0603   8.3544   9.1517   9.3492   9.3765
     9.8566   9.8700  10.0666  10.3407  10.3531  10.5011  10.5065  10.6977
    11.1973  11.4189  11.5017  11.5060  11.6297  11.6372  12.7221  12.7258
    14.5058  14.5148  14.7104  18.1085  20.5222  21.5251

     the Fermi energy is    14.4066 ev

     Writing output data file Cu2N.save

                                                                                

     bravais-lattice index     =            0
     lattice parameter (alat)  =       7.0055  a.u.
     unit-cell volume          =     343.7659 (a.u.)^3
     number of atoms/cell      =            5
     number of atomic types    =            2
     kinetic-energy cut-off    =      30.0000  Ry
     charge density cut-off    =     120.0000  Ry
     convergence threshold     =      1.0E-12
     beta                      =       0.7000
     number of iterations used =            4
     Exchange-correlation      =  SLA  PW   PBX  PBC ( 1  4  3  4 0 0)


     celldm(1)=    7.00550  celldm(2)=    0.00000  celldm(3)=    0.00000
     celldm(4)=    0.00000  celldm(5)=    0.00000  celldm(6)=    0.00000

     crystal axes: (cart. coord. in units of alat)
               a(1) = (  1.0000  0.0000  0.0000 )  
               a(2) = (  0.0000  0.9999  0.0000 )  
               a(3) = (  0.0000  0.0000  1.0000 )  

     reciprocal axes: (cart. coord. in units 2 pi/alat)
               b(1) = (  1.0000  0.0000  0.0000 )  
               b(2) = (  0.0000  1.0001  0.0000 )  
               b(3) = (  0.0000  0.0000  1.0000 )  


     Atoms inside the unit cell: 

     Cartesian axes

     site n.  atom      mass           positions (alat units)
        1     Cu  63.5460   tau(    1) = (    0.00000    0.00000    0.00000  )
        2     Cu  63.5460   tau(    2) = (    0.50000    0.49994    0.00000  )
        3     Cu  63.5460   tau(    3) = (    0.00000    0.49994    0.47492  )
        4     Cu  63.5460   tau(    4) = (    0.50000    0.00000    0.47479  )
        5     N   14.0070   tau(    5) = (    0.00000    0.49994    0.99764  )

     Computing dynamical matrix for 
                    q = (   0.0000000   0.0000000  -0.5000000 )

      5 Sym.Ops. (with q -> -q+G )


     G cutoff =  149.1761  (    514 G-vectors)     FFT grid: ( 25, 25, 25)

     number of k points=    32  gaussian smearing, width (Ry)=  0.0200

     PseudoPot. # 1 for Cu read from file:
     ../../pseudo/Cu.pbe-dn-kjpaw_psl.1.0.0.UPF
     MD5 check sum: d0575d8777d02cc05b6679c1e3a9a036
     Pseudo is Projector augmented-wave + core cor, Zval = 11.0
     Generated using "atomic" code by A. Dal Corso  v.6.3
     Shape of augmentation charge: PSQ
     Using radial grid of 1199 points,  6 beta functions with: 
                l(1) =   0
                l(2) =   0
                l(3) =   1
                l(4) =   1
                l(5) =   2
                l(6) =   2
     Q(r) pseudized with 0 coefficients 


     PseudoPot. # 2 for  N read from file:
     ../../pseudo/N.pbe-n-kjpaw_psl.1.0.0.UPF
     MD5 check sum: 57d39628416b425e94b4a4c0ec66cafa
     Pseudo is Projector augmented-wave + core cor, Zval =  5.0
     Generated using "atomic" code by A. Dal Corso  v.6.3
     Shape of augmentation charge: PSQ
     Using radial grid of 1085 points,  4 beta functions with: 
                l(1) =   0
                l(2) =   0
                l(3) =   1
                l(4) =   1
     Q(r) pseudized with 0 coefficients 


     Mode symmetry, C_2v (mm2)  point group:


     Atomic displacements:
     There are  15 irreducible representations

     Representation     1      1 modes -A_1  D_1  S_1  To be done

     Representation     2      1 modes -A_1  D_1  S_1  To be done

     Representation     3      1 modes -A_1  D_1  S_1  To be done

     Representation     4      1 modes -A_1  D_1  S_1  To be done

     Representation     5      1 modes -A_1  D_1  S_1  To be done

     Representation     6      1 modes -B_1  D_3  S_3  To be done

     Representation     7      1 modes -B_1  D_3  S_3  To be done

     Representation     8      1 modes -B_1  D_3  S_3  To be done

     Representation     9      1 modes -B_1  D_3  S_3  To be done

     Representation    10      1 modes -B_1  D_3  S_3  To be done

     Representation    11      1 modes -B_2  D_4  S_4  To be done

     Representation    12      1 modes -B_2  D_4  S_4  To be done

     Representation    13      1 modes -B_2  D_4  S_4  To be done

     Representation    14      1 modes -B_2  D_4  S_4  To be done

     Representation    15      1 modes -B_2  D_4  S_4  To be done



     Alpha used in Ewald sum =   1.1000
     PHONON       :  5m 5.78s CPU    14m48.52s WALL



     Representation #  1 mode #   1

     Self-consistent Calculation

      iter #   1 total cpu time :   895.5 secs   av.it.:  10.0
      thresh= 1.000E-02 alpha_mix =  0.700 |ddv_scf|^2 =  2.199E-03

      iter #   2 total cpu time :   902.8 secs   av.it.:  13.7
      thresh= 4.689E-03 alpha_mix =  0.700 |ddv_scf|^2 =  8.958E-02

      iter #   3 total cpu time :   909.9 secs   av.it.:  12.5
      thresh= 1.000E-02 alpha_mix =  0.700 |ddv_scf|^2 =  3.580E-04

      iter #   4 total cpu time :   917.4 secs   av.it.:  12.5
      thresh= 1.892E-03 alpha_mix =  0.700 |ddv_scf|^2 =  5.400E-05

      iter #   5 total cpu time :   923.8 secs   av.it.:  12.4
      thresh= 7.348E-04 alpha_mix =  0.700 |ddv_scf|^2 =  3.793E-05

      iter #   6 total cpu time :   930.2 secs   av.it.:  11.9
      thresh= 6.159E-04 alpha_mix =  0.700 |ddv_scf|^2 =  3.216E-06

      iter #   7 total cpu time :   937.3 secs   av.it.:  11.9
      thresh= 1.793E-04 alpha_mix =  0.700 |ddv_scf|^2 =  4.890E-08

      iter #   8 total cpu time :   944.3 secs   av.it.:  13.8
      thresh= 2.211E-05 alpha_mix =  0.700 |ddv_scf|^2 =  5.260E-08

      iter #   9 total cpu time :   951.6 secs   av.it.:  13.0
      thresh= 2.293E-05 alpha_mix =  0.700 |ddv_scf|^2 =  2.050E-09

      iter #  10 total cpu time :   958.7 secs   av.it.:  13.2
      thresh= 4.527E-06 alpha_mix =  0.700 |ddv_scf|^2 =  9.901E-10

      iter #  11 total cpu time :   964.7 secs   av.it.:  12.4
      thresh= 3.147E-06 alpha_mix =  0.700 |ddv_scf|^2 =  2.065E-10

      iter #  12 total cpu time :   971.7 secs   av.it.:  13.1
      thresh= 1.437E-06 alpha_mix =  0.700 |ddv_scf|^2 =  1.838E-11

      iter #  13 total cpu time :   978.6 secs   av.it.:  14.0
      thresh= 4.287E-07 alpha_mix =  0.700 |ddv_scf|^2 =  6.630E-12

      iter #  14 total cpu time :   985.6 secs   av.it.:  14.1
      thresh= 2.575E-07 alpha_mix =  0.700 |ddv_scf|^2 =  2.772E-12

      iter #  15 total cpu time :   993.3 secs   av.it.:  13.9
      thresh= 1.665E-07 alpha_mix =  0.700 |ddv_scf|^2 =  6.071E-13

     End of self-consistent calculation

     Convergence has been achieved 


     Representation #  2 mode #   2

     Self-consistent Calculation

      iter #   1 total cpu time :  1000.3 secs   av.it.:   9.6
      thresh= 1.000E-02 alpha_mix =  0.700 |ddv_scf|^2 =  1.943E-03

      iter #   2 total cpu time :  1007.6 secs   av.it.:  13.6
      thresh= 4.408E-03 alpha_mix =  0.700 |ddv_scf|^2 =  7.438E-02

      iter #   3 total cpu time :  1015.7 secs   av.it.:  12.5
      thresh= 1.000E-02 alpha_mix =  0.700 |ddv_scf|^2 =  5.481E-04

      iter #   4 total cpu time :  1023.4 secs   av.it.:  12.4
      thresh= 2.341E-03 alpha_mix =  0.700 |ddv_scf|^2 =  1.247E-04

      iter #   5 total cpu time :  1030.2 secs   av.it.:  11.4
      thresh= 1.117E-03 alpha_mix =  0.700 |ddv_scf|^2 =  6.459E-05

      iter #   6 total cpu time :  1037.0 secs   av.it.:  12.0
      thresh= 8.037E-04 alpha_mix =  0.700 |ddv_scf|^2 =  1.443E-06

      iter #   7 total cpu time :  1044.5 secs   av.it.:  13.0
      thresh= 1.201E-04 alpha_mix =  0.700 |ddv_scf|^2 =  1.491E-08

      iter #   8 total cpu time :  1051.7 secs   av.it.:  14.0
      thresh= 1.221E-05 alpha_mix =  0.700 |ddv_scf|^2 =  5.545E-08

      iter #   9 total cpu time :  1058.9 secs   av.it.:  13.0
      thresh= 2.355E-05 alpha_mix =  0.700 |ddv_scf|^2 =  3.462E-09

      iter #  10 total cpu time :  1066.8 secs   av.it.:  13.2
      thresh= 5.884E-06 alpha_mix =  0.700 |ddv_scf|^2 =  1.051E-09

      iter #  11 total cpu time :  1074.4 secs   av.it.:  12.6
      thresh= 3.243E-06 alpha_mix =  0.700 |ddv_scf|^2 =  1.049E-10

      iter #  12 total cpu time :  1082.3 secs   av.it.:  13.4
      thresh= 1.024E-06 alpha_mix =  0.700 |ddv_scf|^2 =  5.156E-11

      iter #  13 total cpu time :  1089.4 secs   av.it.:  14.8
      thresh= 7.181E-07 alpha_mix =  0.700 |ddv_scf|^2 =  3.997E-10

      iter #  14 total cpu time :  1096.1 secs   av.it.:  12.4
      thresh= 1.999E-06 alpha_mix =  0.700 |ddv_scf|^2 =  1.359E-11

      iter #  15 total cpu time :  1103.1 secs   av.it.:  13.8
      thresh= 3.686E-07 alpha_mix =  0.700 |ddv_scf|^2 =  5.353E-12

      iter #  16 total cpu time :  1110.9 secs   av.it.:  13.1
      thresh= 2.314E-07 alpha_mix =  0.700 |ddv_scf|^2 =  3.174E-12

      iter #  17 total cpu time :  1118.8 secs   av.it.:  13.9
      thresh= 1.782E-07 alpha_mix =  0.700 |ddv_scf|^2 =  2.005E-11

      iter #  18 total cpu time :  1126.0 secs   av.it.:  12.6
      thresh= 4.478E-07 alpha_mix =  0.700 |ddv_scf|^2 =  1.306E-12

      iter #  19 total cpu time :  1133.8 secs   av.it.:  12.9
      thresh= 1.143E-07 alpha_mix =  0.700 |ddv_scf|^2 =  8.091E-14

     End of self-consistent calculation

     Convergence has been achieved 


     Representation #  3 mode #   3

     Self-consistent Calculation

      iter #   1 total cpu time :  1141.2 secs   av.it.:  10.1
      thresh= 1.000E-02 alpha_mix =  0.700 |ddv_scf|^2 =  1.157E-03

      iter #   2 total cpu time :  1148.1 secs   av.it.:  13.8
      thresh= 3.401E-03 alpha_mix =  0.700 |ddv_scf|^2 =  2.121E-02

      iter #   3 total cpu time :  1155.5 secs   av.it.:  12.1
      thresh= 1.000E-02 alpha_mix =  0.700 |ddv_scf|^2 =  2.657E-04

      iter #   4 total cpu time :  1162.7 secs   av.it.:  12.6
      thresh= 1.630E-03 alpha_mix =  0.700 |ddv_scf|^2 =  5.336E-05

      iter #   5 total cpu time :  1169.7 secs   av.it.:  12.1
      thresh= 7.305E-04 alpha_mix =  0.700 |ddv_scf|^2 =  4.455E-05

      iter #   6 total cpu time :  1176.6 secs   av.it.:  12.1
      thresh= 6.674E-04 alpha_mix =  0.700 |ddv_scf|^2 =  5.315E-06

      iter #   7 total cpu time :  1183.5 secs   av.it.:  12.0
      thresh= 2.306E-04 alpha_mix =  0.700 |ddv_scf|^2 =  3.558E-08

      iter #   8 total cpu time :  1189.6 secs   av.it.:  13.9
      thresh= 1.886E-05 alpha_mix =  0.700 |ddv_scf|^2 =  4.487E-08

      iter #   9 total cpu time :  1197.0 secs   av.it.:  12.9
      thresh= 2.118E-05 alpha_mix =  0.700 |ddv_scf|^2 =  1.356E-09

      iter #  10 total cpu time :  1204.4 secs   av.it.:  14.2
      thresh= 3.682E-06 alpha_mix =  0.700 |ddv_scf|^2 =  1.327E-09

      iter #  11 total cpu time :  1211.8 secs   av.it.:  13.9
      thresh= 3.642E-06 alpha_mix =  0.700 |ddv_scf|^2 =  8.357E-10

      iter #  12 total cpu time :  1218.7 secs   av.it.:  12.8
      thresh= 2.891E-06 alpha_mix =  0.700 |ddv_scf|^2 =  1.078E-10

      iter #  13 total cpu time :  1226.2 secs   av.it.:  13.6
      thresh= 1.038E-06 alpha_mix =  0.700 |ddv_scf|^2 =  3.975E-11

      iter #  14 total cpu time :  1233.0 secs   av.it.:  13.8
      thresh= 6.305E-07 alpha_mix =  0.700 |ddv_scf|^2 =  2.373E-11

      iter #  15 total cpu time :  1239.8 secs   av.it.:  13.9
      thresh= 4.871E-07 alpha_mix =  0.700 |ddv_scf|^2 =  1.601E-11

      iter #  16 total cpu time :  1247.2 secs   av.it.:  13.5
      thresh= 4.002E-07 alpha_mix =  0.700 |ddv_scf|^2 =  2.280E-12

      iter #  17 total cpu time :  1255.1 secs   av.it.:  15.2
      thresh= 1.510E-07 alpha_mix =  0.700 |ddv_scf|^2 =  2.201E-11

      iter #  18 total cpu time :  1261.8 secs   av.it.:  12.9
      thresh= 4.691E-07 alpha_mix =  0.700 |ddv_scf|^2 =  1.657E-11

      iter #  19 total cpu time :  1268.9 secs   av.it.:  12.9
      thresh= 4.070E-07 alpha_mix =  0.700 |ddv_scf|^2 =  2.865E-12

      iter #  20 total cpu time :  1276.8 secs   av.it.:  13.1
      thresh= 1.693E-07 alpha_mix =  0.700 |ddv_scf|^2 =  1.573E-12

      iter #  21 total cpu time :  1284.5 secs   av.it.:  14.9
      thresh= 1.254E-07 alpha_mix =  0.700 |ddv_scf|^2 =  7.148E-12

      iter #  22 total cpu time :  1291.7 secs   av.it.:  13.9
      thresh= 2.674E-07 alpha_mix =  0.700 |ddv_scf|^2 =  3.964E-12

      iter #  23 total cpu time :  1298.8 secs   av.it.:  12.9
      thresh= 1.991E-07 alpha_mix =  0.700 |ddv_scf|^2 =  7.085E-13

     End of self-consistent calculation

     Convergence has been achieved 


     Representation #  4 mode #   4

     Self-consistent Calculation

      iter #   1 total cpu time :  1306.1 secs   av.it.:  10.0
      thresh= 1.000E-02 alpha_mix =  0.700 |ddv_scf|^2 =  1.157E-03

      iter #   2 total cpu time :  1312.8 secs   av.it.:  13.8
      thresh= 3.401E-03 alpha_mix =  0.700 |ddv_scf|^2 =  2.121E-02

      iter #   3 total cpu time :  1319.3 secs   av.it.:  12.1
      thresh= 1.000E-02 alpha_mix =  0.700 |ddv_scf|^2 =  2.657E-04

      iter #   4 total cpu time :  1325.9 secs   av.it.:  12.6
      thresh= 1.630E-03 alpha_mix =  0.700 |ddv_scf|^2 =  5.337E-05

      iter #   5 total cpu time :  1332.1 secs   av.it.:  12.1
      thresh= 7.306E-04 alpha_mix =  0.700 |ddv_scf|^2 =  4.454E-05

      iter #   6 total cpu time :  1338.7 secs   av.it.:  12.1
      thresh= 6.674E-04 alpha_mix =  0.700 |ddv_scf|^2 =  5.313E-06

      iter #   7 total cpu time :  1345.6 secs   av.it.:  12.1
      thresh= 2.305E-04 alpha_mix =  0.700 |ddv_scf|^2 =  3.565E-08

      iter #   8 total cpu time :  1352.4 secs   av.it.:  13.9
      thresh= 1.888E-05 alpha_mix =  0.700 |ddv_scf|^2 =  4.487E-08

      iter #   9 total cpu time :  1358.6 secs   av.it.:  12.9
      thresh= 2.118E-05 alpha_mix =  0.700 |ddv_scf|^2 =  1.352E-09

      iter #  10 total cpu time :  1366.2 secs   av.it.:  14.2
      thresh= 3.677E-06 alpha_mix =  0.700 |ddv_scf|^2 =  1.241E-09

      iter #  11 total cpu time :  1373.5 secs   av.it.:  13.9
      thresh= 3.522E-06 alpha_mix =  0.700 |ddv_scf|^2 =  8.397E-10

      iter #  12 total cpu time :  1380.1 secs   av.it.:  12.6
      thresh= 2.898E-06 alpha_mix =  0.700 |ddv_scf|^2 =  1.044E-10

      iter #  13 total cpu time :  1388.1 secs   av.it.:  13.4
      thresh= 1.022E-06 alpha_mix =  0.700 |ddv_scf|^2 =  4.059E-11

      iter #  14 total cpu time :  1396.4 secs   av.it.:  13.8
      thresh= 6.371E-07 alpha_mix =  0.700 |ddv_scf|^2 =  2.145E-11

      iter #  15 total cpu time :  1404.3 secs   av.it.:  13.9
      thresh= 4.631E-07 alpha_mix =  0.700 |ddv_scf|^2 =  1.117E-11

      iter #  16 total cpu time :  1411.3 secs   av.it.:  13.8
      thresh= 3.343E-07 alpha_mix =  0.700 |ddv_scf|^2 =  2.317E-12

      iter #  17 total cpu time :  1419.0 secs   av.it.:  15.1
      thresh= 1.522E-07 alpha_mix =  0.700 |ddv_scf|^2 =  1.930E-11

      iter #  18 total cpu time :  1425.9 secs   av.it.:  12.9
      thresh= 4.393E-07 alpha_mix =  0.700 |ddv_scf|^2 =  1.295E-11

      iter #  19 total cpu time :  1433.4 secs   av.it.:  12.7
      thresh= 3.599E-07 alpha_mix =  0.700 |ddv_scf|^2 =  2.222E-12

      iter #  20 total cpu time :  1441.0 secs   av.it.:  13.1
      thresh= 1.491E-07 alpha_mix =  0.700 |ddv_scf|^2 =  2.009E-12

      iter #  21 total cpu time :  1448.4 secs   av.it.:  14.9
      thresh= 1.417E-07 alpha_mix =  0.700 |ddv_scf|^2 =  7.970E-12

      iter #  22 total cpu time :  1456.1 secs   av.it.:  13.4
      thresh= 2.823E-07 alpha_mix =  0.700 |ddv_scf|^2 =  2.972E-12

      iter #  23 total cpu time :  1462.8 secs   av.it.:  12.9
      thresh= 1.724E-07 alpha_mix =  0.700 |ddv_scf|^2 =  5.246E-13

     End of self-consistent calculation

     Convergence has been achieved 


     Representation #  5 mode #   5

     Self-consistent Calculation

      iter #   1 total cpu time :  1469.1 secs   av.it.:   8.2
      thresh= 1.000E-02 alpha_mix =  0.700 |ddv_scf|^2 =  2.720E-04

      iter #   2 total cpu time :  1475.6 secs   av.it.:  13.8
      thresh= 1.649E-03 alpha_mix =  0.700 |ddv_scf|^2 =  5.709E-03

      iter #   3 total cpu time :  1482.4 secs   av.it.:  11.4
      thresh= 7.556E-03 alpha_mix =  0.700 |ddv_scf|^2 =  3.575E-05

      iter #   4 total cpu time :  1490.5 secs   av.it.:  12.6
      thresh= 5.979E-04 alpha_mix =  0.700 |ddv_scf|^2 =  1.102E-05

      iter #   5 total cpu time :  1496.4 secs   av.it.:  11.4
      thresh= 3.320E-04 alpha_mix =  0.700 |ddv_scf|^2 =  6.381E-06

      iter #   6 total cpu time :  1503.5 secs   av.it.:  12.0
      thresh= 2.526E-04 alpha_mix =  0.700 |ddv_scf|^2 =  2.765E-08

      iter #   7 total cpu time :  1510.5 secs   av.it.:  13.5
      thresh= 1.663E-05 alpha_mix =  0.700 |ddv_scf|^2 =  1.693E-08

      iter #   8 total cpu time :  1516.9 secs   av.it.:  12.5
      thresh= 1.301E-05 alpha_mix =  0.700 |ddv_scf|^2 =  3.987E-10

      iter #   9 total cpu time :  1523.8 secs   av.it.:  13.2
      thresh= 1.997E-06 alpha_mix =  0.700 |ddv_scf|^2 =  1.456E-10

      iter #  10 total cpu time :  1530.1 secs   av.it.:  13.6
      thresh= 1.207E-06 alpha_mix =  0.700 |ddv_scf|^2 =  3.787E-11

      iter #  11 total cpu time :  1536.9 secs   av.it.:  14.0
      thresh= 6.154E-07 alpha_mix =  0.700 |ddv_scf|^2 =  8.534E-11

      iter #  12 total cpu time :  1544.1 secs   av.it.:  12.1
      thresh= 9.238E-07 alpha_mix =  0.700 |ddv_scf|^2 =  2.879E-12

      iter #  13 total cpu time :  1551.7 secs   av.it.:  14.1
      thresh= 1.697E-07 alpha_mix =  0.700 |ddv_scf|^2 =  5.230E-12

      iter #  14 total cpu time :  1557.4 secs   av.it.:  12.9
      thresh= 2.287E-07 alpha_mix =  0.700 |ddv_scf|^2 =  1.289E-12

      iter #  15 total cpu time :  1564.5 secs   av.it.:  12.9
      thresh= 1.135E-07 alpha_mix =  0.700 |ddv_scf|^2 =  4.213E-13

     End of self-consistent calculation

     Convergence has been achieved 


     Representation #  6 mode #   6

     Self-consistent Calculation

      iter #   1 total cpu time :  1570.0 secs   av.it.:   8.5
      thresh= 1.000E-02 alpha_mix =  0.700 |ddv_scf|^2 =  2.084E-05

      iter #   2 total cpu time :  1577.2 secs   av.it.:  13.0
      thresh= 4.565E-04 alpha_mix =  0.700 |ddv_scf|^2 =  1.272E-06

      iter #   3 total cpu time :  1584.9 secs   av.it.:  13.5
      thresh= 1.128E-04 alpha_mix =  0.700 |ddv_scf|^2 =  3.331E-08

      iter #   4 total cpu time :  1592.5 secs   av.it.:  13.2
      thresh= 1.825E-05 alpha_mix =  0.700 |ddv_scf|^2 =  5.509E-10

      iter #   5 total cpu time :  1600.2 secs   av.it.:  13.5
      thresh= 2.347E-06 alpha_mix =  0.700 |ddv_scf|^2 =  2.157E-11

      iter #   6 total cpu time :  1606.6 secs   av.it.:  13.4
      thresh= 4.644E-07 alpha_mix =  0.700 |ddv_scf|^2 =  1.516E-12

      iter #   7 total cpu time :  1614.1 secs   av.it.:  13.2
      thresh= 1.231E-07 alpha_mix =  0.700 |ddv_scf|^2 =  1.330E-14

     End of self-consistent calculation

     Convergence has been achieved 


     Representation #  7 mode #   7

     Self-consistent Calculation

      iter #   1 total cpu time :  1620.7 secs   av.it.:   8.5
      thresh= 1.000E-02 alpha_mix =  0.700 |ddv_scf|^2 =  2.186E-05

      iter #   2 total cpu time :  1627.4 secs   av.it.:  13.4
      thresh= 4.675E-04 alpha_mix =  0.700 |ddv_scf|^2 =  1.768E-06

      iter #   3 total cpu time :  1635.1 secs   av.it.:  13.5
      thresh= 1.330E-04 alpha_mix =  0.700 |ddv_scf|^2 =  3.578E-08

      iter #   4 total cpu time :  1641.7 secs   av.it.:  13.2
      thresh= 1.892E-05 alpha_mix =  0.700 |ddv_scf|^2 =  3.940E-10

      iter #   5 total cpu time :  1648.3 secs   av.it.:  13.5
      thresh= 1.985E-06 alpha_mix =  0.700 |ddv_scf|^2 =  2.102E-11

      iter #   6 total cpu time :  1655.2 secs   av.it.:  13.2
      thresh= 4.585E-07 alpha_mix =  0.700 |ddv_scf|^2 =  1.048E-12

      iter #   7 total cpu time :  1662.5 secs   av.it.:  13.1
      thresh= 1.024E-07 alpha_mix =  0.700 |ddv_scf|^2 =  4.807E-15

     End of self-consistent calculation

     Convergence has been achieved 


     Representation #  8 mode #   8

     Self-consistent Calculation

      iter #   1 total cpu time :  1669.4 secs   av.it.:   8.2
      thresh= 1.000E-02 alpha_mix =  0.700 |ddv_scf|^2 =  2.310E-05

      iter #   2 total cpu time :  1676.8 secs   av.it.:  13.0
      thresh= 4.807E-04 alpha_mix =  0.700 |ddv_scf|^2 =  1.807E-06

      iter #   3 total cpu time :  1683.2 secs   av.it.:  13.4
      thresh= 1.344E-04 alpha_mix =  0.700 |ddv_scf|^2 =  3.069E-08

      iter #   4 total cpu time :  1690.7 secs   av.it.:  13.4
      thresh= 1.752E-05 alpha_mix =  0.700 |ddv_scf|^2 =  3.391E-10

      iter #   5 total cpu time :  1697.5 secs   av.it.:  13.9
      thresh= 1.842E-06 alpha_mix =  0.700 |ddv_scf|^2 =  2.893E-11

      iter #   6 total cpu time :  1704.0 secs   av.it.:  13.4
      thresh= 5.379E-07 alpha_mix =  0.700 |ddv_scf|^2 =  8.282E-13

     End of self-consistent calculation

     Convergence has been achieved 


     Representation #  9 mode #   9

     Self-consistent Calculation

      iter #   1 total cpu time :  1711.2 secs   av.it.:   7.4
      thresh= 1.000E-02 alpha_mix =  0.700 |ddv_scf|^2 =  4.571E-06

      iter #   2 total cpu time :  1718.8 secs   av.it.:  13.6
      thresh= 2.138E-04 alpha_mix =  0.700 |ddv_scf|^2 =  5.174E-07

      iter #   3 total cpu time :  1725.8 secs   av.it.:  13.2
      thresh= 7.193E-05 alpha_mix =  0.700 |ddv_scf|^2 =  6.901E-10

      iter #   4 total cpu time :  1732.5 secs   av.it.:  13.5
      thresh= 2.627E-06 alpha_mix =  0.700 |ddv_scf|^2 =  6.478E-11

      iter #   5 total cpu time :  1739.8 secs   av.it.:  13.5
      thresh= 8.049E-07 alpha_mix =  0.700 |ddv_scf|^2 =  4.401E-12

      iter #   6 total cpu time :  1746.8 secs   av.it.:  13.4
      thresh= 2.098E-07 alpha_mix =  0.700 |ddv_scf|^2 =  1.633E-13

     End of self-consistent calculation

     Convergence has been achieved 


     Representation # 10 mode #  10

     Self-consistent Calculation

      iter #   1 total cpu time :  1752.8 secs   av.it.:   8.2
      thresh= 1.000E-02 alpha_mix =  0.700 |ddv_scf|^2 =  2.310E-05

      iter #   2 total cpu time :  1759.1 secs   av.it.:  13.4
      thresh= 4.806E-04 alpha_mix =  0.700 |ddv_scf|^2 =  2.063E-06

      iter #   3 total cpu time :  1765.7 secs   av.it.:  13.8
      thresh= 1.436E-04 alpha_mix =  0.700 |ddv_scf|^2 =  3.281E-08

      iter #   4 total cpu time :  1772.8 secs   av.it.:  13.0
      thresh= 1.811E-05 alpha_mix =  0.700 |ddv_scf|^2 =  3.823E-10

      iter #   5 total cpu time :  1779.2 secs   av.it.:  13.6
      thresh= 1.955E-06 alpha_mix =  0.700 |ddv_scf|^2 =  2.439E-11

      iter #   6 total cpu time :  1787.4 secs   av.it.:  13.2
      thresh= 4.939E-07 alpha_mix =  0.700 |ddv_scf|^2 =  1.127E-12

      iter #   7 total cpu time :  1794.6 secs   av.it.:  13.1
      thresh= 1.062E-07 alpha_mix =  0.700 |ddv_scf|^2 =  3.419E-15

     End of self-consistent calculation

     Convergence has been achieved 


     Representation # 11 mode #  11

     Self-consistent Calculation

      iter #   1 total cpu time :  1801.6 secs   av.it.:   8.5
      thresh= 1.000E-02 alpha_mix =  0.700 |ddv_scf|^2 =  2.083E-05

      iter #   2 total cpu time :  1808.8 secs   av.it.:  13.0
      thresh= 4.563E-04 alpha_mix =  0.700 |ddv_scf|^2 =  1.269E-06

      iter #   3 total cpu time :  1815.8 secs   av.it.:  13.5
      thresh= 1.127E-04 alpha_mix =  0.700 |ddv_scf|^2 =  3.319E-08

      iter #   4 total cpu time :  1823.0 secs   av.it.:  13.2
      thresh= 1.822E-05 alpha_mix =  0.700 |ddv_scf|^2 =  5.453E-10

      iter #   5 total cpu time :  1829.7 secs   av.it.:  13.6
      thresh= 2.335E-06 alpha_mix =  0.700 |ddv_scf|^2 =  2.129E-11

      iter #   6 total cpu time :  1836.4 secs   av.it.:  13.4
      thresh= 4.614E-07 alpha_mix =  0.700 |ddv_scf|^2 =  1.498E-12

      iter #   7 total cpu time :  1844.0 secs   av.it.:  13.2
      thresh= 1.224E-07 alpha_mix =  0.700 |ddv_scf|^2 =  1.325E-14

     End of self-consistent calculation

     Convergence has been achieved 


     Representation # 12 mode #  12

     Self-consistent Calculation

      iter #   1 total cpu time :  1851.8 secs   av.it.:   8.5
      thresh= 1.000E-02 alpha_mix =  0.700 |ddv_scf|^2 =  2.185E-05

      iter #   2 total cpu time :  1859.1 secs   av.it.:  13.4
      thresh= 4.674E-04 alpha_mix =  0.700 |ddv_scf|^2 =  1.765E-06

      iter #   3 total cpu time :  1865.7 secs   av.it.:  13.5
      thresh= 1.328E-04 alpha_mix =  0.700 |ddv_scf|^2 =  3.567E-08

      iter #   4 total cpu time :  1873.8 secs   av.it.:  13.2
      thresh= 1.889E-05 alpha_mix =  0.700 |ddv_scf|^2 =  3.896E-10

      iter #   5 total cpu time :  1880.6 secs   av.it.:  13.5
      thresh= 1.974E-06 alpha_mix =  0.700 |ddv_scf|^2 =  2.081E-11

      iter #   6 total cpu time :  1887.6 secs   av.it.:  13.2
      thresh= 4.562E-07 alpha_mix =  0.700 |ddv_scf|^2 =  1.040E-12

      iter #   7 total cpu time :  1894.1 secs   av.it.:  13.1
      thresh= 1.020E-07 alpha_mix =  0.700 |ddv_scf|^2 =  4.743E-15

     End of self-consistent calculation

     Convergence has been achieved 


     Representation # 13 mode #  13

     Self-consistent Calculation

      iter #   1 total cpu time :  1900.9 secs   av.it.:   8.2
      thresh= 1.000E-02 alpha_mix =  0.700 |ddv_scf|^2 =  2.310E-05

      iter #   2 total cpu time :  1907.6 secs   av.it.:  13.0
      thresh= 4.806E-04 alpha_mix =  0.700 |ddv_scf|^2 =  1.806E-06

      iter #   3 total cpu time :  1914.8 secs   av.it.:  13.4
      thresh= 1.344E-04 alpha_mix =  0.700 |ddv_scf|^2 =  3.080E-08

      iter #   4 total cpu time :  1922.2 secs   av.it.:  13.4
[...]

      iter #   8 total cpu time :  7079.0 secs   av.it.:  13.2
      thresh= 1.308E-06 alpha_mix =  0.700 |ddv_scf|^2 =  3.872E-13

     End of self-consistent calculation

     Convergence has been achieved 


     Representation #  7 mode #   7

     Self-consistent Calculation

      iter #   1 total cpu time :  7085.9 secs   av.it.:   8.9
      thresh= 1.000E-02 alpha_mix =  0.700 |ddv_scf|^2 =  7.021E-05

      iter #   2 total cpu time :  7093.5 secs   av.it.:  14.0
      thresh= 8.379E-04 alpha_mix =  0.700 |ddv_scf|^2 =  5.623E-05

      iter #   3 total cpu time :  7100.0 secs   av.it.:  13.6
      thresh= 7.498E-04 alpha_mix =  0.700 |ddv_scf|^2 =  1.821E-05

      iter #   4 total cpu time :  7107.1 secs   av.it.:  13.1
      thresh= 4.268E-04 alpha_mix =  0.700 |ddv_scf|^2 =  8.952E-07

      iter #   5 total cpu time :  7114.4 secs   av.it.:  13.0
      thresh= 9.462E-05 alpha_mix =  0.700 |ddv_scf|^2 =  2.703E-09

      iter #   6 total cpu time :  7120.6 secs   av.it.:  13.9
      thresh= 5.200E-06 alpha_mix =  0.700 |ddv_scf|^2 =  8.575E-10

      iter #   7 total cpu time :  7127.1 secs   av.it.:  13.8
      thresh= 2.928E-06 alpha_mix =  0.700 |ddv_scf|^2 =  1.349E-10

      iter #   8 total cpu time :  7134.6 secs   av.it.:  13.1
      thresh= 1.162E-06 alpha_mix =  0.700 |ddv_scf|^2 =  1.967E-13

     End of self-consistent calculation

     Convergence has been achieved 


     Representation #  8 mode #   8

     Self-consistent Calculation

      iter #   1 total cpu time :  7140.9 secs   av.it.:   8.0
      thresh= 1.000E-02 alpha_mix =  0.700 |ddv_scf|^2 =  3.044E-05

      iter #   2 total cpu time :  7147.8 secs   av.it.:  15.0
      thresh= 5.517E-04 alpha_mix =  0.700 |ddv_scf|^2 =  3.383E-04

      iter #   3 total cpu time :  7154.5 secs   av.it.:  13.0
      thresh= 1.839E-03 alpha_mix =  0.700 |ddv_scf|^2 =  1.654E-05

      iter #   4 total cpu time :  7161.2 secs   av.it.:  13.2
      thresh= 4.066E-04 alpha_mix =  0.700 |ddv_scf|^2 =  1.609E-07

      iter #   5 total cpu time :  7169.4 secs   av.it.:  13.0
      thresh= 4.011E-05 alpha_mix =  0.700 |ddv_scf|^2 =  4.676E-10

      iter #   6 total cpu time :  7177.1 secs   av.it.:  13.4
      thresh= 2.162E-06 alpha_mix =  0.700 |ddv_scf|^2 =  1.407E-10

      iter #   7 total cpu time :  7184.6 secs   av.it.:  13.5
      thresh= 1.186E-06 alpha_mix =  0.700 |ddv_scf|^2 =  3.138E-12

      iter #   8 total cpu time :  7191.3 secs   av.it.:  12.4
      thresh= 1.771E-07 alpha_mix =  0.700 |ddv_scf|^2 =  2.616E-13

     End of self-consistent calculation

     Convergence has been achieved 


     Representation #  9 mode #   9

     Self-consistent Calculation

      iter #   1 total cpu time :  7198.0 secs   av.it.:   8.9
      thresh= 1.000E-02 alpha_mix =  0.700 |ddv_scf|^2 =  6.616E-05

      iter #   2 total cpu time :  7204.7 secs   av.it.:  13.5
      thresh= 8.134E-04 alpha_mix =  0.700 |ddv_scf|^2 =  4.663E-05

      iter #   3 total cpu time :  7211.7 secs   av.it.:  12.6
      thresh= 6.829E-04 alpha_mix =  0.700 |ddv_scf|^2 =  1.800E-06

      iter #   4 total cpu time :  7219.9 secs   av.it.:  13.1
      thresh= 1.341E-04 alpha_mix =  0.700 |ddv_scf|^2 =  2.536E-06

      iter #   5 total cpu time :  7227.0 secs   av.it.:  12.1
      thresh= 1.592E-04 alpha_mix =  0.700 |ddv_scf|^2 =  4.475E-09

      iter #   6 total cpu time :  7234.1 secs   av.it.:  13.2
      thresh= 6.689E-06 alpha_mix =  0.700 |ddv_scf|^2 =  1.587E-09

      iter #   7 total cpu time :  7241.6 secs   av.it.:  12.1
      thresh= 3.984E-06 alpha_mix =  0.700 |ddv_scf|^2 =  7.753E-11

      iter #   8 total cpu time :  7248.3 secs   av.it.:  12.1
      thresh= 8.805E-07 alpha_mix =  0.700 |ddv_scf|^2 =  3.103E-13

     End of self-consistent calculation

     Convergence has been achieved 


     Representation # 10 mode #  10

     Self-consistent Calculation

      iter #   1 total cpu time :  7254.9 secs   av.it.:   8.9
      thresh= 1.000E-02 alpha_mix =  0.700 |ddv_scf|^2 =  6.617E-05

      iter #   2 total cpu time :  7261.7 secs   av.it.:  13.5
      thresh= 8.135E-04 alpha_mix =  0.700 |ddv_scf|^2 =  4.664E-05

      iter #   3 total cpu time :  7269.1 secs   av.it.:  12.6
      thresh= 6.830E-04 alpha_mix =  0.700 |ddv_scf|^2 =  1.799E-06

      iter #   4 total cpu time :  7276.1 secs   av.it.:  13.1
      thresh= 1.341E-04 alpha_mix =  0.700 |ddv_scf|^2 =  2.532E-06

      iter #   5 total cpu time :  7282.6 secs   av.it.:  12.1
      thresh= 1.591E-04 alpha_mix =  0.700 |ddv_scf|^2 =  4.469E-09

      iter #   6 total cpu time :  7289.5 secs   av.it.:  13.2
      thresh= 6.685E-06 alpha_mix =  0.700 |ddv_scf|^2 =  1.576E-09

      iter #   7 total cpu time :  7296.4 secs   av.it.:  12.1
      thresh= 3.970E-06 alpha_mix =  0.700 |ddv_scf|^2 =  7.612E-11

      iter #   8 total cpu time :  7302.5 secs   av.it.:  12.1
      thresh= 8.725E-07 alpha_mix =  0.700 |ddv_scf|^2 =  3.043E-13

     End of self-consistent calculation

     Convergence has been achieved 


     Representation # 11 mode #  11

     Self-consistent Calculation

      iter #   1 total cpu time :  7309.1 secs   av.it.:   8.6
      thresh= 1.000E-02 alpha_mix =  0.700 |ddv_scf|^2 =  6.995E-05

      iter #   2 total cpu time :  7316.5 secs   av.it.:  13.5
      thresh= 8.364E-04 alpha_mix =  0.700 |ddv_scf|^2 =  5.074E-05

      iter #   3 total cpu time :  7323.3 secs   av.it.:  12.6
      thresh= 7.123E-04 alpha_mix =  0.700 |ddv_scf|^2 =  2.054E-07

      iter #   4 total cpu time :  7329.3 secs   av.it.:  13.9
      thresh= 4.532E-05 alpha_mix =  0.700 |ddv_scf|^2 =  1.534E-06

      iter #   5 total cpu time :  7335.9 secs   av.it.:  11.5
      thresh= 1.239E-04 alpha_mix =  0.700 |ddv_scf|^2 =  6.253E-10

      iter #   6 total cpu time :  7342.9 secs   av.it.:  13.2
      thresh= 2.501E-06 alpha_mix =  0.700 |ddv_scf|^2 =  3.974E-10

      iter #   7 total cpu time :  7350.3 secs   av.it.:  12.4
      thresh= 1.993E-06 alpha_mix =  0.700 |ddv_scf|^2 =  8.232E-11

      iter #   8 total cpu time :  7356.8 secs   av.it.:  12.0
      thresh= 9.073E-07 alpha_mix =  0.700 |ddv_scf|^2 =  1.668E-13

     End of self-consistent calculation

     Convergence has been achieved 


     Representation # 12 mode #  12

     Self-consistent Calculation

      iter #   1 total cpu time :  7364.1 secs   av.it.:   8.9
      thresh= 1.000E-02 alpha_mix =  0.700 |ddv_scf|^2 =  1.232E-04

      iter #   2 total cpu time :  7372.7 secs   av.it.:  13.5
      thresh= 1.110E-03 alpha_mix =  0.700 |ddv_scf|^2 =  6.183E-04

      iter #   3 total cpu time :  7379.2 secs   av.it.:  12.4
      thresh= 2.486E-03 alpha_mix =  0.700 |ddv_scf|^2 =  1.706E-05

      iter #   4 total cpu time :  7385.9 secs   av.it.:  13.4
      thresh= 4.130E-04 alpha_mix =  0.700 |ddv_scf|^2 =  1.643E-05

      iter #   5 total cpu time :  7392.6 secs   av.it.:  12.5
      thresh= 4.053E-04 alpha_mix =  0.700 |ddv_scf|^2 =  1.694E-07

      iter #   6 total cpu time :  7399.4 secs   av.it.:  12.5
      thresh= 4.116E-05 alpha_mix =  0.700 |ddv_scf|^2 =  5.772E-10

      iter #   7 total cpu time :  7405.8 secs   av.it.:  13.1
      thresh= 2.402E-06 alpha_mix =  0.700 |ddv_scf|^2 =  2.253E-11

      iter #   8 total cpu time :  7411.9 secs   av.it.:  13.6
      thresh= 4.747E-07 alpha_mix =  0.700 |ddv_scf|^2 =  9.273E-12

      iter #   9 total cpu time :  7419.1 secs   av.it.:  13.4
      thresh= 3.045E-07 alpha_mix =  0.700 |ddv_scf|^2 =  1.946E-12

      iter #  10 total cpu time :  7426.2 secs   av.it.:  12.8
      thresh= 1.395E-07 alpha_mix =  0.700 |ddv_scf|^2 =  5.851E-15

     End of self-consistent calculation

     Convergence has been achieved 


     Representation # 13 mode #  13

     Self-consistent Calculation

      iter #   1 total cpu time :  7432.6 secs   av.it.:   9.2
      thresh= 1.000E-02 alpha_mix =  0.700 |ddv_scf|^2 =  1.235E-04

      iter #   2 total cpu time :  7440.2 secs   av.it.:  13.6
      thresh= 1.111E-03 alpha_mix =  0.700 |ddv_scf|^2 =  6.325E-04

      iter #   3 total cpu time :  7448.5 secs   av.it.:  12.4
      thresh= 2.515E-03 alpha_mix =  0.700 |ddv_scf|^2 =  2.398E-05

      iter #   4 total cpu time :  7456.1 secs   av.it.:  13.4
      thresh= 4.897E-04 alpha_mix =  0.700 |ddv_scf|^2 =  1.498E-05

      iter #   5 total cpu time :  7463.1 secs   av.it.:  13.0
      thresh= 3.870E-04 alpha_mix =  0.700 |ddv_scf|^2 =  1.729E-07

      iter #   6 total cpu time :  7469.6 secs   av.it.:  12.2
      thresh= 4.158E-05 alpha_mix =  0.700 |ddv_scf|^2 =  5.699E-10

      iter #   7 total cpu time :  7476.8 secs   av.it.:  13.2
      thresh= 2.387E-06 alpha_mix =  0.700 |ddv_scf|^2 =  2.220E-11

      iter #   8 total cpu time :  7484.9 secs   av.it.:  13.6
      thresh= 4.711E-07 alpha_mix =  0.700 |ddv_scf|^2 =  7.426E-12

      iter #   9 total cpu time :  7492.1 secs   av.it.:  13.2
      thresh= 2.725E-07 alpha_mix =  0.700 |ddv_scf|^2 =  8.032E-13

     End of self-consistent calculation

     Convergence has been achieved 


     Representation # 14 mode #  14

     Self-consistent Calculation

      iter #   1 total cpu time :  7498.4 secs   av.it.:   9.2
      thresh= 1.000E-02 alpha_mix =  0.700 |ddv_scf|^2 =  1.235E-04

      iter #   2 total cpu time :  7504.7 secs   av.it.:  13.8
      thresh= 1.111E-03 alpha_mix =  0.700 |ddv_scf|^2 =  6.321E-04

      iter #   3 total cpu time :  7510.8 secs   av.it.:  12.4
      thresh= 2.514E-03 alpha_mix =  0.700 |ddv_scf|^2 =  2.397E-05

      iter #   4 total cpu time :  7517.4 secs   av.it.:  13.4
      thresh= 4.896E-04 alpha_mix =  0.700 |ddv_scf|^2 =  1.498E-05

      iter #   5 total cpu time :  7523.8 secs   av.it.:  13.0
      thresh= 3.870E-04 alpha_mix =  0.700 |ddv_scf|^2 =  1.728E-07

      iter #   6 total cpu time :  7530.5 secs   av.it.:  12.2
      thresh= 4.157E-05 alpha_mix =  0.700 |ddv_scf|^2 =  5.556E-10

      iter #   7 total cpu time :  7537.3 secs   av.it.:  13.2
      thresh= 2.357E-06 alpha_mix =  0.700 |ddv_scf|^2 =  2.180E-11

      iter #   8 total cpu time :  7543.9 secs   av.it.:  13.6
      thresh= 4.669E-07 alpha_mix =  0.700 |ddv_scf|^2 =  7.328E-12

      iter #   9 total cpu time :  7550.0 secs   av.it.:  13.2
      thresh= 2.707E-07 alpha_mix =  0.700 |ddv_scf|^2 =  7.921E-13

     End of self-consistent calculation

     Convergence has been achieved 


     Representation # 15 mode #  15

     Self-consistent Calculation

      iter #   1 total cpu time :  7556.9 secs   av.it.:   7.8
      thresh= 1.000E-02 alpha_mix =  0.700 |ddv_scf|^2 =  3.016E-05

      iter #   2 total cpu time :  7564.3 secs   av.it.:  14.5
      thresh= 5.492E-04 alpha_mix =  0.700 |ddv_scf|^2 =  3.322E-04

      iter #   3 total cpu time :  7571.7 secs   av.it.:  12.6
      thresh= 1.823E-03 alpha_mix =  0.700 |ddv_scf|^2 =  1.649E-05

      iter #   4 total cpu time :  7578.9 secs   av.it.:  13.0
      thresh= 4.060E-04 alpha_mix =  0.700 |ddv_scf|^2 =  3.142E-07

      iter #   5 total cpu time :  7585.8 secs   av.it.:  12.8
      thresh= 5.605E-05 alpha_mix =  0.700 |ddv_scf|^2 =  9.497E-08

      iter #   6 total cpu time :  7592.6 secs   av.it.:  12.8
      thresh= 3.082E-05 alpha_mix =  0.700 |ddv_scf|^2 =  3.164E-10

      iter #   7 total cpu time :  7599.3 secs   av.it.:  13.0
      thresh= 1.779E-06 alpha_mix =  0.700 |ddv_scf|^2 =  5.651E-12

      iter #   8 total cpu time :  7607.0 secs   av.it.:  12.4
      thresh= 2.377E-07 alpha_mix =  0.700 |ddv_scf|^2 =  3.977E-13

     End of self-consistent calculation

     Convergence has been achieved 

     Number of q in the star =    1
     List of q in the star:
          1  -0.500000000  -0.500062172  -0.500000000

     Diagonalizing the dynamical matrix

     q = (   -0.500000000  -0.500062172  -0.500000000 ) 

 **************************************************************************
     freq (    1) =       2.508858 [THz] =      83.686501 [cm-1]
     freq (    2) =       2.581188 [THz] =      86.099174 [cm-1]
     freq (    3) =       2.887266 [THz] =      96.308814 [cm-1]
     freq (    4) =       3.321313 [THz] =     110.787083 [cm-1]
     freq (    5) =       3.326616 [THz] =     110.963973 [cm-1]
     freq (    6) =       3.365345 [THz] =     112.255827 [cm-1]
     freq (    7) =       6.264541 [THz] =     208.962610 [cm-1]
     freq (    8) =       6.294538 [THz] =     209.963200 [cm-1]
     freq (    9) =       6.373571 [THz] =     212.599436 [cm-1]
     freq (   10) =       8.733164 [THz] =     291.306980 [cm-1]
     freq (   11) =       9.455835 [THz] =     315.412716 [cm-1]
     freq (   12) =      11.644776 [THz] =     388.427916 [cm-1]
     freq (   13) =      19.191061 [THz] =     640.144881 [cm-1]
     freq (   14) =      19.239900 [THz] =     641.773988 [cm-1]
     freq (   15) =      21.215898 [THz] =     707.686179 [cm-1]
 **************************************************************************

     Mode symmetry, C_2v (mm2)  point group:

     freq (  1 -  1) =         83.7  [cm-1]   --> A_1  D_1  S_1      
     freq (  2 -  2) =         86.1  [cm-1]   --> A_2  D_2  S_2      
     freq (  3 -  3) =         96.3  [cm-1]   --> B_1  D_3  S_3      
     freq (  4 -  4) =        110.8  [cm-1]   --> A_1  D_1  S_1      
     freq (  5 -  5) =        111.0  [cm-1]   --> B_1  D_3  S_3      
     freq (  6 -  6) =        112.3  [cm-1]   --> A_2  D_2  S_2      
     freq (  7 -  7) =        209.0  [cm-1]   --> A_1  D_1  S_1      
     freq (  8 -  8) =        210.0  [cm-1]   --> A_2  D_2  S_2      
     freq (  9 -  9) =        212.6  [cm-1]   --> B_1  D_3  S_3      
     freq ( 10 - 10) =        291.3  [cm-1]   --> B_2  D_4  S_4      
     freq ( 11 - 11) =        315.4  [cm-1]   --> B_2  D_4  S_4      
     freq ( 12 - 12) =        388.4  [cm-1]   --> B_2  D_4  S_4      
     freq ( 13 - 13) =        640.1  [cm-1]   --> A_1  D_1  S_1      
     freq ( 14 - 14) =        641.8  [cm-1]   --> A_2  D_2  S_2      
     freq ( 15 - 15) =        707.7  [cm-1]   --> B_2  D_4  S_4      

     init_run     :      8.94s CPU     24.46s WALL (       7 calls)
     electrons    :     20.05s CPU     40.87s WALL (       7 calls)

     Called by init_run:
     wfcinit      :      0.00s CPU      0.01s WALL (       7 calls)
     potinit      :      4.28s CPU     10.59s WALL (       7 calls)

     Called by electrons:
     c_bands      :     20.03s CPU     40.85s WALL (       7 calls)
     v_of_rho     :      0.02s CPU      0.05s WALL (       8 calls)
     newd         :      0.03s CPU      0.09s WALL (       8 calls)
     PAW_pot      :      4.62s CPU     11.65s WALL (       8 calls)

     Called by c_bands:
     init_us_2    :      0.62s CPU      0.70s WALL (   19984 calls)
     cegterg      :     18.88s CPU     37.51s WALL (     224 calls)

     Called by sum_band:

     Called by *egterg:
     h_psi        :    411.86s CPU   1407.68s WALL (  333947 calls)
     s_psi        :     51.02s CPU     96.85s WALL (  681190 calls)
     g_psi        :      0.00s CPU      0.01s WALL (    3360 calls)
     cdiaghg      :     11.36s CPU     11.60s WALL (    3584 calls)

     Called by h_psi:
     h_psi:pot    :    411.05s CPU   1406.27s WALL (  333947 calls)
     h_psi:calbec :     67.14s CPU    325.24s WALL (  333947 calls)
     vloc_psi     :    285.69s CPU   1031.89s WALL (  333947 calls)
     add_vuspsi   :     57.44s CPU     47.74s WALL (  333947 calls)

     General routines
     calbec       :    147.33s CPU    647.13s WALL (  709862 calls)
     fft          :      2.11s CPU     16.35s WALL (   32768 calls)
     ffts         :      0.36s CPU      1.33s WALL (    9900 calls)
     fftw         :    312.50s CPU   1177.75s WALL (13448484 calls)
     davcio       :      0.39s CPU      2.12s WALL (   97145 calls)

     Parallel routines
     fft_scatter  :    220.56s CPU   1073.06s WALL (13491152 calls)

     PHONON       :     0h43m CPU        2h 6m WALL

     INITIALIZATION: 
     phq_setup    :      0.09s CPU      0.40s WALL (       8 calls)
     phq_init     :      6.06s CPU     22.67s WALL (       8 calls)

     phq_init     :      6.06s CPU     22.67s WALL (       8 calls)
     set_drhoc    :      0.31s CPU      0.30s WALL (      24 calls)
     init_vloc    :      0.02s CPU      0.04s WALL (       8 calls)
     init_us_1    :      0.19s CPU      0.73s WALL (       8 calls)
     newd         :      0.03s CPU      0.09s WALL (       8 calls)
     dvanqq       :      0.69s CPU      2.18s WALL (       8 calls)
     drho         :      4.16s CPU     15.69s WALL (       8 calls)

     DYNAMICAL MATRIX:
     dynmat0      :      0.80s CPU      3.67s WALL (       8 calls)
     phqscf       :   2593.42s CPU   7514.02s WALL (       8 calls)
     dynmatrix    :      0.02s CPU      0.10s WALL (       8 calls)

     phqscf       :   2593.42s CPU   7514.02s WALL (       8 calls)
     solve_linter :   2590.23s CPU   7499.52s WALL (     120 calls)
     drhodv       :      3.08s CPU     12.46s WALL (     120 calls)

     dynmat0      :      0.80s CPU      3.67s WALL (       8 calls)
     dynmat_us    :      0.52s CPU      2.77s WALL (       8 calls)
     d2ionq       :      0.03s CPU      0.09s WALL (       8 calls)
     dynmatcc     :      0.23s CPU      0.61s WALL (       8 calls)

     dynmat_us    :      0.52s CPU      2.77s WALL (       8 calls)
     addusdynmat  :      0.00s CPU      0.00s WALL (       8 calls)

     phqscf       :   2593.42s CPU   7514.02s WALL (       8 calls)
     solve_linter :   2590.23s CPU   7499.52s WALL (     120 calls)

     solve_linter :   2590.23s CPU   7499.52s WALL (     120 calls)
     dvqpsi_us    :      9.42s CPU     28.11s WALL (    1920 calls)
     ortho        :     17.27s CPU     67.13s WALL (   17104 calls)
     cgsolve      :    631.83s CPU   2252.72s WALL (   17104 calls)
     incdrhoscf   :     27.03s CPU     94.72s WALL (   17104 calls)
     addusddens   :      4.62s CPU     12.53s WALL (    1189 calls)
     vpsifft      :     19.31s CPU     73.83s WALL (   15184 calls)
     dv_of_drho   :      1.14s CPU      3.67s WALL (    1069 calls)
     mix_pot      :      0.33s CPU     20.50s WALL (    1069 calls)
     ef_shift     :      0.06s CPU      0.09s WALL (     141 calls)
     localdos     :      0.34s CPU      1.33s WALL (      15 calls)
     psymdvscf    :      4.84s CPU     11.94s WALL (    1069 calls)
     newdq        :      4.50s CPU     15.36s WALL (    1069 calls)
     adddvscf     :      3.95s CPU      6.48s WALL (   15184 calls)
     drhodvus     :      0.02s CPU      0.18s WALL (     120 calls)

     dvqpsi_us    :      9.42s CPU     28.11s WALL (    1920 calls)
     dvqpsi_us_on :      6.44s CPU      8.88s WALL (    1920 calls)

     cgsolve      :    631.83s CPU   2252.72s WALL (   17104 calls)
     ch_psi       :    602.38s CPU   2075.56s WALL (  330139 calls)

     ch_psi       :    602.38s CPU   2075.56s WALL (  330139 calls)
     last         :    179.55s CPU    635.29s WALL (  330139 calls)

     add_vuspsi   :     57.44s CPU     47.74s WALL (  333947 calls)

     incdrhoscf   :     27.03s CPU     94.72s WALL (   17104 calls)
     addusdbec    :      6.14s CPU     20.14s WALL (   19024 calls)

     drhodvus     :      0.02s CPU      0.18s WALL (     120 calls)

      General routines
     calbec       :    147.33s CPU    647.13s WALL (  709862 calls)
     fft          :      2.11s CPU     16.35s WALL (   32768 calls)
     ffts         :      0.36s CPU      1.33s WALL (    9900 calls)
     fftw         :    312.50s CPU   1177.75s WALL (13448484 calls)
     davcio       :      0.39s CPU      2.12s WALL (   97145 calls)
     write_rec    :      0.91s CPU     18.12s WALL (    1189 calls)


     PHONON       :     0h43m CPU        2h 6m WALL


   This run was terminated on:  17:29: 3   1Jul2020            

=------------------------------------------------------------------------------=
   JOB DONE.
=------------------------------------------------------------------------------=
