--------------------------------------------------------------------------
WARNING: Linux kernel CMA support was requested via the
btl_vader_single_copy_mechanism MCA variable, but CMA support is
not available due to restrictive ptrace settings.

The vader shared memory BTL will fall back on another single-copy
mechanism if one is available. This may result in lower performance.

  Local host: Rijuki
--------------------------------------------------------------------------

     Program PHONON v.6.0 (svn rev. 13079) starts on 22Apr2020 at 14:55:46 

     This program is part of the open-source Quantum ESPRESSO suite
     for quantum simulation of materials; please cite
         "P. Giannozzi et al., J. Phys.:Condens. Matter 21 395502 (2009);
          URL http://www.quantum-espresso.org", 
     in publications or presentations arising from this work. More details at
     http://www.quantum-espresso.org/quote

     Parallel version (MPI), running on    12 processors
     R & G space division:  proc/nbgrp/npool/nimage =      12

     Reading data from directory:
     ./tmp/Cu2N.save

   Info: using nr1, nr2, nr3 values from input

   Info: using nr1, nr2, nr3 values from input

     IMPORTANT: XC functional enforced from input :
     Exchange-correlation      =  SLA  PW   PBX  PBC ( 1  4  3  4 0 0)
     Any further DFT definition will be discarded
     Please, verify this is what you really want

               file Cu.pbe-dn-kjpaw_psl.1.0.0.UPF: wavefunction(s)  4S 3D renormalized
               file N.pbe-n-kjpaw_psl.1.0.0.UPF: wavefunction(s)  2S renormalized

     Parallelization info
     --------------------
     sticks:   dense  smooth     PW     G-vecs:    dense   smooth      PW
     Min          40      40     12                  650      650     108
     Max          41      41     13                  653      653     112
     Sum         481     481    145                 7809     7809    1309

     Generating pointlists ...
     new r_m :   0.2062 (alat units)  1.4499 (a.u.) for type    1
     new r_m :   0.2062 (alat units)  1.4499 (a.u.) for type    2

     Check: negative/imaginary core charge=   -0.000075    0.000000


     Dynamical matrices for ( 2, 2, 2)  uniform grid of q-points
     (   6q-points):
       N         xq(1)         xq(2)         xq(3) 
       1   0.000000000   0.000000000   0.000000000
       2   0.000000000   0.000000000  -0.500000000
       3   0.000000000  -0.500000000   0.000000000
       4   0.000000000  -0.500000000  -0.500000000
       5  -0.500000000   0.000000000  -0.500000000
       6  -0.500000000  -0.500000000  -0.500000000

     Calculation of q =    0.0000000   0.0000000   0.0000000

                                                                                

     bravais-lattice index     =            0
     lattice parameter (alat)  =       7.0298  a.u.
     unit-cell volume          =     347.3965 (a.u.)^3
     number of atoms/cell      =            5
     number of atomic types    =            2
     kinetic-energy cut-off    =      30.0000  Ry
     charge density cut-off    =     120.0000  Ry
     convergence threshold     =      1.0E-14
     beta                      =       0.7000
     number of iterations used =            4
     Exchange-correlation      =  SLA  PW   PBX  PBC ( 1  4  3  4 0 0)


     celldm(1)=    7.02978  celldm(2)=    0.00000  celldm(3)=    0.00000
     celldm(4)=    0.00000  celldm(5)=    0.00000  celldm(6)=    0.00000

     crystal axes: (cart. coord. in units of alat)
               a(1) = (  1.0000  0.0000  0.0000 )  
               a(2) = (  0.0000  1.0000  0.0000 )  
               a(3) = (  0.0000  0.0000  1.0000 )  

     reciprocal axes: (cart. coord. in units 2 pi/alat)
               b(1) = (  1.0000  0.0000  0.0000 )  
               b(2) = (  0.0000  1.0000  0.0000 )  
               b(3) = (  0.0000  0.0000  1.0000 )  


     Atoms inside the unit cell: 

     Cartesian axes

     site n.  atom      mass           positions (alat units)
        1     Cu  63.5460   tau(    1) = (    0.00000    0.00000    0.00000  )
        2     Cu  63.5460   tau(    2) = (    0.50000    0.50000    0.00000  )
        3     Cu  63.5460   tau(    3) = (    0.00000    0.50000    0.50000  )
        4     Cu  63.5460   tau(    4) = (    0.50000    0.00000    0.50000  )
        5     N   14.0070   tau(    5) = (    0.00000    0.50000    1.00000  )

     Computing dynamical matrix for 
                    q = (   0.0000000   0.0000000   0.0000000 )

     17 Sym.Ops. (with q -> -q+G )


     G cutoff =  150.2122  (    652 G-vectors)     FFT grid: ( 25, 25, 25)

     number of k points=    12  gaussian smearing, width (Ry)=  0.0200

     PseudoPot. # 1 for Cu read from file:
     ../../pseudo/Cu.pbe-dn-kjpaw_psl.1.0.0.UPF
     MD5 check sum: cfffd1f38ee05704b3e17f46f1730a6f
     Pseudo is Projector augmented-wave + core cor, Zval = 11.0
     Generated using "atomic" code by A. Dal Corso  v.6.3
     Shape of augmentation charge: PSQ
     Using radial grid of 1199 points,  6 beta functions with: 
                l(1) =   0
                l(2) =   0
                l(3) =   1
                l(4) =   1
                l(5) =   2
                l(6) =   2
     Q(r) pseudized with 0 coefficients 


     PseudoPot. # 2 for  N read from file:
     ../../pseudo/N.pbe-n-kjpaw_psl.1.0.0.UPF
     MD5 check sum: 14c48229446f9f2d411169a3abcbc3fa
     Pseudo is Projector augmented-wave + core cor, Zval =  5.0
     Generated using "atomic" code by A. Dal Corso  v.6.3
     Shape of augmentation charge: PSQ
     Using radial grid of 1085 points,  4 beta functions with: 
                l(1) =   0
                l(2) =   0
                l(3) =   1
                l(4) =   1
     Q(r) pseudized with 0 coefficients 


     Mode symmetry, D_4h(4/mmm) point group:


     Atomic displacements:
     There are  10 irreducible representations

     Representation     1      1 modes -A_2u X_4' M_4'  To be done

     Representation     2      1 modes -A_2u X_4' M_4'  To be done

     Representation     3      1 modes -A_2u X_4' M_4'  To be done

     Representation     4      1 modes -A_2u X_4' M_4'  To be done

     Representation     5      1 modes -B_2u X_3' M_3'  To be done

     Representation     6      2 modes -E_u  X_5' M_5'  To be done

     Representation     7      2 modes -E_u  X_5' M_5'  To be done

     Representation     8      2 modes -E_u  X_5' M_5'  To be done

     Representation     9      2 modes -E_u  X_5' M_5'  To be done

     Representation    10      2 modes -E_u  X_5' M_5'  To be done



     Alpha used in Ewald sum =   1.1000
     PHONON       :     5.91s CPU        13.23s WALL



     Representation #  1 mode #   1

     Self-consistent Calculation

     Pert. #  1: Fermi energy shift (Ry) =     0.0000E+00     0.0000E+00

      iter #   1 total cpu time :    29.5 secs   av.it.:   6.8
      thresh= 1.000E-02 alpha_mix =  0.700 |ddv_scf|^2 =  3.978E-06

     Pert. #  1: Fermi energy shift (Ry) =     0.0000E+00     0.0000E+00

      iter #   2 total cpu time :    45.4 secs   av.it.:  12.7
      thresh= 1.994E-04 alpha_mix =  0.700 |ddv_scf|^2 =  9.401E-07

     Pert. #  1: Fermi energy shift (Ry) =     0.0000E+00     0.0000E+00

      iter #   3 total cpu time :    62.2 secs   av.it.:  12.3
      thresh= 9.696E-05 alpha_mix =  0.700 |ddv_scf|^2 =  3.505E-09

     Pert. #  1: Fermi energy shift (Ry) =     0.0000E+00     0.0000E+00

      iter #   4 total cpu time :    78.8 secs   av.it.:  13.0
      thresh= 5.920E-06 alpha_mix =  0.700 |ddv_scf|^2 =  7.094E-11

     Pert. #  1: Fermi energy shift (Ry) =     0.0000E+00     0.0000E+00

      iter #   5 total cpu time :    94.3 secs   av.it.:  12.2
      thresh= 8.423E-07 alpha_mix =  0.700 |ddv_scf|^2 =  1.388E-12

     Pert. #  1: Fermi energy shift (Ry) =     0.0000E+00     0.0000E+00

      iter #   6 total cpu time :   111.4 secs   av.it.:  11.8
      thresh= 1.178E-07 alpha_mix =  0.700 |ddv_scf|^2 =  2.917E-14

     Pert. #  1: Fermi energy shift (Ry) =     0.0000E+00     0.0000E+00

      iter #   7 total cpu time :   129.1 secs   av.it.:  11.2
      thresh= 1.708E-08 alpha_mix =  0.700 |ddv_scf|^2 =  1.050E-16

     End of self-consistent calculation

     Convergence has been achieved 


     Representation #  2 mode #   2

     Self-consistent Calculation

     Pert. #  1: Fermi energy shift (Ry) =     0.0000E+00     0.0000E+00

      iter #   1 total cpu time :   144.0 secs   av.it.:   8.2
      thresh= 1.000E-02 alpha_mix =  0.700 |ddv_scf|^2 =  2.908E-05

     Pert. #  1: Fermi energy shift (Ry) =     0.0000E+00     0.0000E+00

      iter #   2 total cpu time :   159.1 secs   av.it.:  12.7
      thresh= 5.392E-04 alpha_mix =  0.700 |ddv_scf|^2 =  6.874E-06

     Pert. #  1: Fermi energy shift (Ry) =     0.0000E+00     0.0000E+00

      iter #   3 total cpu time :   176.5 secs   av.it.:  12.3
      thresh= 2.622E-04 alpha_mix =  0.700 |ddv_scf|^2 =  4.290E-08

     Pert. #  1: Fermi energy shift (Ry) =     0.0000E+00     0.0000E+00

      iter #   4 total cpu time :   192.1 secs   av.it.:  12.3
      thresh= 2.071E-05 alpha_mix =  0.700 |ddv_scf|^2 =  2.472E-10

     Pert. #  1: Fermi energy shift (Ry) =     0.0000E+00     0.0000E+00

      iter #   5 total cpu time :   207.9 secs   av.it.:  12.8
      thresh= 1.572E-06 alpha_mix =  0.700 |ddv_scf|^2 =  9.610E-12

     Pert. #  1: Fermi energy shift (Ry) =     0.0000E+00     0.0000E+00

      iter #   6 total cpu time :   224.5 secs   av.it.:  12.0
      thresh= 3.100E-07 alpha_mix =  0.700 |ddv_scf|^2 =  2.065E-13

     Pert. #  1: Fermi energy shift (Ry) =     0.0000E+00     0.0000E+00

      iter #   7 total cpu time :   241.3 secs   av.it.:  12.7
      thresh= 4.544E-08 alpha_mix =  0.700 |ddv_scf|^2 =  3.244E-15

     End of self-consistent calculation

     Convergence has been achieved 


     Representation #  3 mode #   3

     Self-consistent Calculation

     Pert. #  1: Fermi energy shift (Ry) =     0.0000E+00     0.0000E+00

      iter #   1 total cpu time :   257.0 secs   av.it.:   7.5
      thresh= 1.000E-02 alpha_mix =  0.700 |ddv_scf|^2 =  1.982E-05

     Pert. #  1: Fermi energy shift (Ry) =     0.0000E+00     0.0000E+00

      iter #   2 total cpu time :   271.7 secs   av.it.:  12.5
      thresh= 4.452E-04 alpha_mix =  0.700 |ddv_scf|^2 =  3.949E-06

     Pert. #  1: Fermi energy shift (Ry) =     0.0000E+00     0.0000E+00

      iter #   3 total cpu time :   288.1 secs   av.it.:  12.7
      thresh= 1.987E-04 alpha_mix =  0.700 |ddv_scf|^2 =  5.642E-08

     Pert. #  1: Fermi energy shift (Ry) =     0.0000E+00     0.0000E+00

      iter #   4 total cpu time :   305.6 secs   av.it.:  12.2
      thresh= 2.375E-05 alpha_mix =  0.700 |ddv_scf|^2 =  7.477E-10

     Pert. #  1: Fermi energy shift (Ry) =     0.0000E+00     0.0000E+00

      iter #   5 total cpu time :   322.3 secs   av.it.:  12.6
      thresh= 2.734E-06 alpha_mix =  0.700 |ddv_scf|^2 =  1.898E-11

     Pert. #  1: Fermi energy shift (Ry) =     0.0000E+00     0.0000E+00

      iter #   6 total cpu time :   338.3 secs   av.it.:  11.8
      thresh= 4.357E-07 alpha_mix =  0.700 |ddv_scf|^2 =  2.783E-13

     Pert. #  1: Fermi energy shift (Ry) =     0.0000E+00     0.0000E+00

      iter #   7 total cpu time :   352.6 secs   av.it.:  12.7
      thresh= 5.275E-08 alpha_mix =  0.700 |ddv_scf|^2 =  3.535E-15

     End of self-consistent calculation

     Convergence has been achieved 


     Representation #  4 mode #   4

     Self-consistent Calculation

     Pert. #  1: Fermi energy shift (Ry) =     0.0000E+00     0.0000E+00

      iter #   1 total cpu time :   368.1 secs   av.it.:   8.0
      thresh= 1.000E-02 alpha_mix =  0.700 |ddv_scf|^2 =  2.006E-05

     Pert. #  1: Fermi energy shift (Ry) =     0.0000E+00     0.0000E+00

      iter #   2 total cpu time :   382.8 secs   av.it.:  12.3
      thresh= 4.478E-04 alpha_mix =  0.700 |ddv_scf|^2 =  3.781E-06

     Pert. #  1: Fermi energy shift (Ry) =     0.0000E+00     0.0000E+00

      iter #   3 total cpu time :   399.2 secs   av.it.:  12.5
      thresh= 1.944E-04 alpha_mix =  0.700 |ddv_scf|^2 =  6.134E-08

     Pert. #  1: Fermi energy shift (Ry) =     0.0000E+00     0.0000E+00

      iter #   4 total cpu time :   414.6 secs   av.it.:  13.0
      thresh= 2.477E-05 alpha_mix =  0.700 |ddv_scf|^2 =  7.175E-10

     Pert. #  1: Fermi energy shift (Ry) =     0.0000E+00     0.0000E+00

      iter #   5 total cpu time :   429.8 secs   av.it.:  12.7
      thresh= 2.679E-06 alpha_mix =  0.700 |ddv_scf|^2 =  1.935E-11

     Pert. #  1: Fermi energy shift (Ry) =     0.0000E+00     0.0000E+00

      iter #   6 total cpu time :   444.2 secs   av.it.:  12.1
      thresh= 4.398E-07 alpha_mix =  0.700 |ddv_scf|^2 =  1.059E-13

     Pert. #  1: Fermi energy shift (Ry) =     0.0000E+00     0.0000E+00

      iter #   7 total cpu time :   461.9 secs   av.it.:  12.8
      thresh= 3.254E-08 alpha_mix =  0.700 |ddv_scf|^2 =  3.593E-15

     End of self-consistent calculation

     Convergence has been achieved 


     Representation #  5 mode #   5

     Self-consistent Calculation

     Pert. #  1: Fermi energy shift (Ry) =     0.0000E+00     0.0000E+00

      iter #   1 total cpu time :   478.0 secs   av.it.:   7.3
      thresh= 1.000E-02 alpha_mix =  0.700 |ddv_scf|^2 =  8.527E-06

     Pert. #  1: Fermi energy shift (Ry) =     0.0000E+00     0.0000E+00

      iter #   2 total cpu time :   494.4 secs   av.it.:  12.2
      thresh= 2.920E-04 alpha_mix =  0.700 |ddv_scf|^2 =  5.660E-08

     Pert. #  1: Fermi energy shift (Ry) =     0.0000E+00     0.0000E+00

      iter #   3 total cpu time :   510.1 secs   av.it.:  12.7
      thresh= 2.379E-05 alpha_mix =  0.700 |ddv_scf|^2 =  3.340E-09

     Pert. #  1: Fermi energy shift (Ry) =     0.0000E+00     0.0000E+00

      iter #   4 total cpu time :   526.4 secs   av.it.:  12.7
      thresh= 5.779E-06 alpha_mix =  0.700 |ddv_scf|^2 =  2.826E-11

     Pert. #  1: Fermi energy shift (Ry) =     0.0000E+00     0.0000E+00

      iter #   5 total cpu time :   537.9 secs   av.it.:  11.7
      thresh= 5.316E-07 alpha_mix =  0.700 |ddv_scf|^2 =  2.343E-14

     Pert. #  1: Fermi energy shift (Ry) =     0.0000E+00     0.0000E+00

      iter #   6 total cpu time :   550.3 secs   av.it.:  11.3
      thresh= 1.531E-08 alpha_mix =  0.700 |ddv_scf|^2 =  6.296E-16

     End of self-consistent calculation

     Convergence has been achieved 


     Representation #  6 modes #   6  7

     Self-consistent Calculation

     Pert. #  1: Fermi energy shift (Ry) =     0.0000E+00     0.0000E+00
     Pert. #  2: Fermi energy shift (Ry) =    -6.3669E-44     0.0000E+00

      iter #   1 total cpu time :   574.6 secs   av.it.:   8.8
      thresh= 1.000E-02 alpha_mix =  0.700 |ddv_scf|^2 =  7.220E-06

     Pert. #  1: Fermi energy shift (Ry) =     0.0000E+00     0.0000E+00
     Pert. #  2: Fermi energy shift (Ry) =     2.9153E-44     0.0000E+00

      iter #   2 total cpu time :   599.1 secs   av.it.:  14.7
      thresh= 2.687E-04 alpha_mix =  0.700 |ddv_scf|^2 =  1.571E-06

     Pert. #  1: Fermi energy shift (Ry) =     0.0000E+00     0.0000E+00
     Pert. #  2: Fermi energy shift (Ry) =    -3.8784E-45     0.0000E+00

      iter #   3 total cpu time :   625.1 secs   av.it.:  14.2
      thresh= 1.253E-04 alpha_mix =  0.700 |ddv_scf|^2 =  1.260E-08

     Pert. #  1: Fermi energy shift (Ry) =     0.0000E+00     0.0000E+00
     Pert. #  2: Fermi energy shift (Ry) =    -3.8190E-45     0.0000E+00

      iter #   4 total cpu time :   650.4 secs   av.it.:  14.5
      thresh= 1.122E-05 alpha_mix =  0.700 |ddv_scf|^2 =  1.637E-10

     Pert. #  1: Fermi energy shift (Ry) =     0.0000E+00     0.0000E+00
     Pert. #  2: Fermi energy shift (Ry) =    -3.7171E-45     0.0000E+00

      iter #   5 total cpu time :   674.9 secs   av.it.:  14.7
      thresh= 1.280E-06 alpha_mix =  0.700 |ddv_scf|^2 =  4.083E-12

     Pert. #  1: Fermi energy shift (Ry) =     0.0000E+00     0.0000E+00
     Pert. #  2: Fermi energy shift (Ry) =    -3.7390E-45     0.0000E+00

      iter #   6 total cpu time :   700.2 secs   av.it.:  13.6
      thresh= 2.021E-07 alpha_mix =  0.700 |ddv_scf|^2 =  5.306E-14

     Pert. #  1: Fermi energy shift (Ry) =     0.0000E+00     0.0000E+00
     Pert. #  2: Fermi energy shift (Ry) =    -3.7405E-45     0.0000E+00

      iter #   7 total cpu time :   723.9 secs   av.it.:  13.8
      thresh= 2.303E-08 alpha_mix =  0.700 |ddv_scf|^2 =  7.731E-16

     End of self-consistent calculation

     Convergence has been achieved 


     Representation #  7 modes #   8  9

     Self-consistent Calculation

     Pert. #  1: Fermi energy shift (Ry) =     0.0000E+00     0.0000E+00
     Pert. #  2: Fermi energy shift (Ry) =     0.0000E+00     0.0000E+00

      iter #   1 total cpu time :   746.5 secs   av.it.:   8.6
      thresh= 1.000E-02 alpha_mix =  0.700 |ddv_scf|^2 =  4.701E-06

     Pert. #  1: Fermi energy shift (Ry) =     0.0000E+00     0.0000E+00
     Pert. #  2: Fermi energy shift (Ry) =     0.0000E+00     0.0000E+00

      iter #   2 total cpu time :   771.6 secs   av.it.:  14.4
      thresh= 2.168E-04 alpha_mix =  0.700 |ddv_scf|^2 =  8.670E-07

     Pert. #  1: Fermi energy shift (Ry) =     0.0000E+00     0.0000E+00
     Pert. #  2: Fermi energy shift (Ry) =     0.0000E+00     0.0000E+00

      iter #   3 total cpu time :   797.2 secs   av.it.:  14.5
      thresh= 9.311E-05 alpha_mix =  0.700 |ddv_scf|^2 =  1.596E-08

     Pert. #  1: Fermi energy shift (Ry) =     0.0000E+00     0.0000E+00
     Pert. #  2: Fermi energy shift (Ry) =     0.0000E+00     0.0000E+00

      iter #   4 total cpu time :   822.7 secs   av.it.:  14.2
      thresh= 1.263E-05 alpha_mix =  0.700 |ddv_scf|^2 =  1.439E-10

     Pert. #  1: Fermi energy shift (Ry) =     0.0000E+00     0.0000E+00
     Pert. #  2: Fermi energy shift (Ry) =     0.0000E+00     0.0000E+00

      iter #   5 total cpu time :   847.3 secs   av.it.:  14.7
      thresh= 1.200E-06 alpha_mix =  0.700 |ddv_scf|^2 =  2.557E-12

     Pert. #  1: Fermi energy shift (Ry) =     0.0000E+00     0.0000E+00
     Pert. #  2: Fermi energy shift (Ry) =     0.0000E+00     0.0000E+00

      iter #   6 total cpu time :   871.3 secs   av.it.:  13.4
      thresh= 1.599E-07 alpha_mix =  0.700 |ddv_scf|^2 =  4.416E-14

     Pert. #  1: Fermi energy shift (Ry) =     0.0000E+00     0.0000E+00
     Pert. #  2: Fermi energy shift (Ry) =     0.0000E+00     0.0000E+00

      iter #   7 total cpu time :   896.5 secs   av.it.:  14.3
      thresh= 2.101E-08 alpha_mix =  0.700 |ddv_scf|^2 =  5.639E-16

     End of self-consistent calculation

     Convergence has been achieved 


     Representation #  8 modes #  10 11

     Self-consistent Calculation

     Pert. #  1: Fermi energy shift (Ry) =     0.0000E+00     0.0000E+00
     Pert. #  2: Fermi energy shift (Ry) =    -5.2557E-44     0.0000E+00

      iter #   1 total cpu time :   920.6 secs   av.it.:   8.1
      thresh= 1.000E-02 alpha_mix =  0.700 |ddv_scf|^2 =  2.494E-06

     Pert. #  1: Fermi energy shift (Ry) =     0.0000E+00     0.0000E+00
     Pert. #  2: Fermi energy shift (Ry) =    -1.3040E-42     0.0000E+00

      iter #   2 total cpu time :   945.1 secs   av.it.:  14.6
      thresh= 1.579E-04 alpha_mix =  0.700 |ddv_scf|^2 =  2.408E-07

     Pert. #  1: Fermi energy shift (Ry) =     0.0000E+00     0.0000E+00
     Pert. #  2: Fermi energy shift (Ry) =    -2.8136E-42     0.0000E+00

      iter #   3 total cpu time :   970.4 secs   av.it.:  14.7
      thresh= 4.908E-05 alpha_mix =  0.700 |ddv_scf|^2 =  2.131E-08

     Pert. #  1: Fermi energy shift (Ry) =     0.0000E+00     0.0000E+00
     Pert. #  2: Fermi energy shift (Ry) =    -2.3809E-42     0.0000E+00

      iter #   4 total cpu time :   994.4 secs   av.it.:  14.0
      thresh= 1.460E-05 alpha_mix =  0.700 |ddv_scf|^2 =  1.638E-10

     Pert. #  1: Fermi energy shift (Ry) =     0.0000E+00     0.0000E+00
     Pert. #  2: Fermi energy shift (Ry) =    -2.4181E-42     0.0000E+00

      iter #   5 total cpu time :  1020.5 secs   av.it.:  14.6
      thresh= 1.280E-06 alpha_mix =  0.700 |ddv_scf|^2 =  3.907E-12

     Pert. #  1: Fermi energy shift (Ry) =     0.0000E+00     0.0000E+00
     Pert. #  2: Fermi energy shift (Ry) =    -2.4156E-42     0.0000E+00

      iter #   6 total cpu time :  1044.6 secs   av.it.:  13.6
      thresh= 1.977E-07 alpha_mix =  0.700 |ddv_scf|^2 =  1.007E-13

     Pert. #  1: Fermi energy shift (Ry) =     0.0000E+00     0.0000E+00
     Pert. #  2: Fermi energy shift (Ry) =    -2.4163E-42     0.0000E+00

      iter #   7 total cpu time :  1069.6 secs   av.it.:  13.7
      thresh= 3.173E-08 alpha_mix =  0.700 |ddv_scf|^2 =  9.181E-16

     End of self-consistent calculation

     Convergence has been achieved 


     Representation #  9 modes #  12 13

     Self-consistent Calculation

     Pert. #  1: Fermi energy shift (Ry) =     0.0000E+00     0.0000E+00
     Pert. #  2: Fermi energy shift (Ry) =     0.0000E+00     0.0000E+00

      iter #   1 total cpu time :  1090.9 secs   av.it.:   7.2
      thresh= 1.000E-02 alpha_mix =  0.700 |ddv_scf|^2 =  9.946E-07

     Pert. #  1: Fermi energy shift (Ry) =     0.0000E+00     0.0000E+00
     Pert. #  2: Fermi energy shift (Ry) =     0.0000E+00     0.0000E+00

      iter #   2 total cpu time :  1115.0 secs   av.it.:  14.6
      thresh= 9.973E-05 alpha_mix =  0.700 |ddv_scf|^2 =  2.352E-07

     Pert. #  1: Fermi energy shift (Ry) =     0.0000E+00     0.0000E+00
     Pert. #  2: Fermi energy shift (Ry) =     0.0000E+00     0.0000E+00

      iter #   3 total cpu time :  1140.2 secs   av.it.:  13.9
      thresh= 4.849E-05 alpha_mix =  0.700 |ddv_scf|^2 =  8.779E-10

     Pert. #  1: Fermi energy shift (Ry) =     0.0000E+00     0.0000E+00
     Pert. #  2: Fermi energy shift (Ry) =     0.0000E+00     0.0000E+00

      iter #   4 total cpu time :  1164.8 secs   av.it.:  14.7
      thresh= 2.963E-06 alpha_mix =  0.700 |ddv_scf|^2 =  1.784E-11

     Pert. #  1: Fermi energy shift (Ry) =     0.0000E+00     0.0000E+00
     Pert. #  2: Fermi energy shift (Ry) =     0.0000E+00     0.0000E+00

      iter #   5 total cpu time :  1188.1 secs   av.it.:  13.7
      thresh= 4.224E-07 alpha_mix =  0.700 |ddv_scf|^2 =  3.532E-13

     Pert. #  1: Fermi energy shift (Ry) =     0.0000E+00     0.0000E+00
     Pert. #  2: Fermi energy shift (Ry) =     0.0000E+00     0.0000E+00

      iter #   6 total cpu time :  1212.2 secs   av.it.:  13.4
      thresh= 5.943E-08 alpha_mix =  0.700 |ddv_scf|^2 =  7.346E-15

     End of self-consistent calculation

     Convergence has been achieved 


     Representation # 10 modes #  14 15

     Self-consistent Calculation

     Pert. #  1: Fermi energy shift (Ry) =     0.0000E+00     0.0000E+00
     Pert. #  2: Fermi energy shift (Ry) =     0.0000E+00     0.0000E+00

      iter #   1 total cpu time :  1236.6 secs   av.it.:   8.0
      thresh= 1.000E-02 alpha_mix =  0.700 |ddv_scf|^2 =  4.955E-06

     Pert. #  1: Fermi energy shift (Ry) =     0.0000E+00     0.0000E+00
     Pert. #  2: Fermi energy shift (Ry) =     0.0000E+00     0.0000E+00

      iter #   2 total cpu time :  1260.5 secs   av.it.:  14.5
      thresh= 2.226E-04 alpha_mix =  0.700 |ddv_scf|^2 =  9.868E-07

     Pert. #  1: Fermi energy shift (Ry) =     0.0000E+00     0.0000E+00
     Pert. #  2: Fermi energy shift (Ry) =     0.0000E+00     0.0000E+00

      iter #   3 total cpu time :  1286.4 secs   av.it.:  14.2
      thresh= 9.934E-05 alpha_mix =  0.700 |ddv_scf|^2 =  1.411E-08

     Pert. #  1: Fermi energy shift (Ry) =     0.0000E+00     0.0000E+00
     Pert. #  2: Fermi energy shift (Ry) =     0.0000E+00     0.0000E+00

      iter #   4 total cpu time :  1311.3 secs   av.it.:  13.8
      thresh= 1.188E-05 alpha_mix =  0.700 |ddv_scf|^2 =  1.863E-10

     Pert. #  1: Fermi energy shift (Ry) =     0.0000E+00     0.0000E+00
     Pert. #  2: Fermi energy shift (Ry) =     0.0000E+00     0.0000E+00

      iter #   5 total cpu time :  1336.7 secs   av.it.:  14.2
      thresh= 1.365E-06 alpha_mix =  0.700 |ddv_scf|^2 =  4.708E-12

     Pert. #  1: Fermi energy shift (Ry) =     0.0000E+00     0.0000E+00
     Pert. #  2: Fermi energy shift (Ry) =     0.0000E+00     0.0000E+00

      iter #   6 total cpu time :  1359.7 secs   av.it.:  13.3
      thresh= 2.170E-07 alpha_mix =  0.700 |ddv_scf|^2 =  6.967E-14

     Pert. #  1: Fermi energy shift (Ry) =     0.0000E+00     0.0000E+00
     Pert. #  2: Fermi energy shift (Ry) =     0.0000E+00     0.0000E+00

      iter #   7 total cpu time :  1385.9 secs   av.it.:  14.0
      thresh= 2.639E-08 alpha_mix =  0.700 |ddv_scf|^2 =  8.792E-16

     End of self-consistent calculation

     Convergence has been achieved 

     Number of q in the star =    1
     List of q in the star:
          1   0.000000000   0.000000000   0.000000000

     Diagonalizing the dynamical matrix

     q = (    0.000000000   0.000000000   0.000000000 ) 

 **************************************************************************
     freq (    1) =      -0.974050 [THz] =     -32.490814 [cm-1]
     freq (    2) =       1.017529 [THz] =      33.941116 [cm-1]
     freq (    3) =       1.017529 [THz] =      33.941116 [cm-1]
     freq (    4) =       2.898410 [THz] =      96.680544 [cm-1]
     freq (    5) =       2.968133 [THz] =      99.006253 [cm-1]
     freq (    6) =       2.968133 [THz] =      99.006253 [cm-1]
     freq (    7) =       4.349127 [THz] =     145.071276 [cm-1]
     freq (    8) =       4.750435 [THz] =     158.457446 [cm-1]
     freq (    9) =       4.750435 [THz] =     158.457446 [cm-1]
     freq (   10) =       5.390784 [THz] =     179.817196 [cm-1]
     freq (   11) =       5.477837 [THz] =     182.720977 [cm-1]
     freq (   12) =       5.477837 [THz] =     182.720977 [cm-1]
     freq (   13) =      21.262239 [THz] =     709.231964 [cm-1]
     freq (   14) =      21.307521 [THz] =     710.742387 [cm-1]
     freq (   15) =      21.307521 [THz] =     710.742387 [cm-1]
 **************************************************************************

     Mode symmetry, D_4h(4/mmm) point group:

     freq (  1 -  1) =        -32.5  [cm-1]   --> A_2u X_4' M_4'  I  
     freq (  2 -  3) =         33.9  [cm-1]   --> E_u  X_5' M_5'  I  
     freq (  4 -  4) =         96.7  [cm-1]   --> B_2u X_3' M_3'     
     freq (  5 -  6) =         99.0  [cm-1]   --> E_u  X_5' M_5'  I  
     freq (  7 -  7) =        145.1  [cm-1]   --> A_2u X_4' M_4'  I  
     freq (  8 -  9) =        158.5  [cm-1]   --> E_u  X_5' M_5'  I  
     freq ( 10 - 10) =        179.8  [cm-1]   --> A_2u X_4' M_4'  I  
     freq ( 11 - 12) =        182.7  [cm-1]   --> E_u  X_5' M_5'  I  
     freq ( 13 - 13) =        709.2  [cm-1]   --> A_2u X_4' M_4'  I  
     freq ( 14 - 15) =        710.7  [cm-1]   --> E_u  X_5' M_5'  I  

     Calculation of q =    0.0000000   0.0000000  -0.5000000

   Info: using nr1, nr2, nr3 values from input

   Info: using nr1, nr2, nr3 values from input

     Parallelization info
     --------------------
     sticks:   dense  smooth     PW     G-vecs:    dense   smooth      PW
     Min          40      40     12                  650      650     108
     Max          41      41     13                  653      653     112
     Sum         481     481    145                 7809     7809    1309



     bravais-lattice index     =            0
     lattice parameter (alat)  =       7.0298  a.u.
     unit-cell volume          =     347.3965 (a.u.)^3
     number of atoms/cell      =            5
     number of atomic types    =            2
     number of electrons       =        49.00
     number of Kohn-Sham states=           30
     kinetic-energy cutoff     =      30.0000  Ry
     charge density cutoff     =     120.0000  Ry
     Exchange-correlation      =  SLA  PW   PBX  PBC ( 1  4  3  4 0 0)

     celldm(1)=   7.029781  celldm(2)=   0.000000  celldm(3)=   0.000000
     celldm(4)=   0.000000  celldm(5)=   0.000000  celldm(6)=   0.000000

     crystal axes: (cart. coord. in units of alat)
               a(1) = (   1.000000   0.000000   0.000000 )  
               a(2) = (   0.000000   1.000000   0.000000 )  
               a(3) = (   0.000000   0.000000   1.000000 )  

     reciprocal axes: (cart. coord. in units 2 pi/alat)
               b(1) = (  1.000000  0.000000  0.000000 )  
               b(2) = (  0.000000  1.000000  0.000000 )  
               b(3) = (  0.000000  0.000000  1.000000 )  


     PseudoPot. # 1 for Cu read from file:
     ../../pseudo/Cu.pbe-dn-kjpaw_psl.1.0.0.UPF
     MD5 check sum: cfffd1f38ee05704b3e17f46f1730a6f
     Pseudo is Projector augmented-wave + core cor, Zval = 11.0
     Generated using "atomic" code by A. Dal Corso  v.6.3
     Shape of augmentation charge: PSQ
     Using radial grid of 1199 points,  6 beta functions with: 
                l(1) =   0
                l(2) =   0
                l(3) =   1
                l(4) =   1
                l(5) =   2
                l(6) =   2
     Q(r) pseudized with 0 coefficients 


     PseudoPot. # 2 for  N read from file:
     ../../pseudo/N.pbe-n-kjpaw_psl.1.0.0.UPF
     MD5 check sum: 14c48229446f9f2d411169a3abcbc3fa
     Pseudo is Projector augmented-wave + core cor, Zval =  5.0
     Generated using "atomic" code by A. Dal Corso  v.6.3
     Shape of augmentation charge: PSQ
     Using radial grid of 1085 points,  4 beta functions with: 
                l(1) =   0
                l(2) =   0
                l(3) =   1
                l(4) =   1
     Q(r) pseudized with 0 coefficients 


     atomic species   valence    mass     pseudopotential
        Cu            11.00    63.54600     Cu( 1.00)
        N              5.00    14.00700      N( 1.00)

     Starting magnetic structure 
     atomic species   magnetization
        Cu           0.000
        N            0.000

     16 Sym. Ops., with inversion, found



   Cartesian axes

     site n.     atom                  positions (alat units)
         1           Cu  tau(   1) = (   0.0000000   0.0000000   0.0000000  )
         2           Cu  tau(   2) = (   0.5000000   0.5000000   0.0000000  )
         3           Cu  tau(   3) = (   0.0000000   0.5000000   0.5000000  )
         4           Cu  tau(   4) = (   0.5000000   0.0000000   0.5000000  )
         5           N   tau(   5) = (   0.0000000   0.5000000   1.0000000  )

     number of k points=    16  gaussian smearing, width (Ry)=  0.0200
                       cart. coord. in units 2pi/alat
        k(    1) = (   0.1250000   0.1250000   0.1250000), wk =   0.1250000
        k(    2) = (   0.1250000   0.1250000  -0.3750000), wk =   0.0000000
        k(    3) = (   0.1250000   0.1250000   0.3750000), wk =   0.1250000
        k(    4) = (   0.1250000   0.1250000  -0.1250000), wk =   0.0000000
        k(    5) = (   0.1250000   0.3750000   0.3750000), wk =   0.1250000
        k(    6) = (   0.1250000   0.3750000  -0.1250000), wk =   0.0000000
        k(    7) = (   0.3750000   0.3750000   0.3750000), wk =   0.1250000
        k(    8) = (   0.3750000   0.3750000  -0.1250000), wk =   0.0000000
        k(    9) = (   0.3750000  -0.1250000   0.1250000), wk =   0.1250000
        k(   10) = (   0.3750000  -0.1250000  -0.3750000), wk =   0.0000000
        k(   11) = (   0.1250000   0.3750000   0.1250000), wk =   0.1250000
        k(   12) = (   0.1250000   0.3750000  -0.3750000), wk =   0.0000000
        k(   13) = (   0.3750000  -0.3750000   0.1250000), wk =   0.1250000
        k(   14) = (   0.3750000  -0.3750000  -0.3750000), wk =   0.0000000
        k(   15) = (   0.3750000   0.1250000   0.3750000), wk =   0.1250000
        k(   16) = (   0.3750000   0.1250000  -0.1250000), wk =   0.0000000

     Dense  grid:     7809 G-vectors     FFT dimensions: (  25,  25,  25)

     Estimated max dynamical RAM per process >       0.88Mb

     Estimated total allocated dynamical RAM >      10.53Mb
     Generating pointlists ...

     Check: negative/imaginary core charge=   -0.000075    0.000000

     The potential is recalculated from file :
     ./tmp/_ph0/Cu2N.save/charge-density.dat

     Starting wfc are   40 atomic wfcs
     Checking if some PAW data can be deallocated... 

     Band Structure Calculation
     Davidson diagonalization with overlap

     ethr =  2.04E-11,  avg # of iterations = 14.5

     total cpu time spent up to now is       15.3 secs

     End of band structure calculation

 ------ SPIN UP ------------


          k = 0.1250 0.1250 0.1250 (   964 PWs)   bands (ev):

    -4.2578   5.8843   6.9892   6.9893   7.3924   8.7186   8.7189   8.7789
     8.7792   9.0048   9.9720  10.1116  10.1118  10.3221  10.3229  10.8581
    11.1087  11.2720  11.2724  11.5576  11.5579  11.6281  11.8388  11.8389
    14.2494  17.0029  17.0032  17.1920  20.8226  20.8226

          k = 0.1250 0.1250-0.3750 (   954 PWs)   bands (ev):

    -3.9002   4.9551   6.5873   6.6039   7.5697   8.6603   8.9628   9.2232
     9.2479   9.2741   9.7446  10.0559  10.1236  10.3329  10.3779  10.6483
    10.9327  11.2029  11.2748  11.3804  11.4684  11.5927  11.7753  12.0516
    14.8394  15.2657  17.0263  18.6907  20.1868  21.6676

          k = 0.1250 0.1250 0.3750 (   954 PWs)   bands (ev):

    -3.9002   4.9551   6.5873   6.6039   7.5697   8.6603   8.9628   9.2232
     9.2479   9.2741   9.7446  10.0559  10.1236  10.3329  10.3779  10.6483
    10.9327  11.2029  11.2748  11.3804  11.4684  11.5927  11.7753  12.0516
    14.8394  15.2657  17.0263  18.6907  20.1868  21.6676

          k = 0.1250 0.1250-0.1250 (   964 PWs)   bands (ev):

    -4.2578   5.8843   6.9892   6.9893   7.3924   8.7186   8.7189   8.7789
     8.7792   9.0048   9.9720  10.1116  10.1118  10.3221  10.3229  10.8581
    11.1087  11.2720  11.2724  11.5576  11.5579  11.6281  11.8388  11.8389
    14.2494  17.0029  17.0032  17.1920  20.8226  20.8226

          k = 0.1250 0.3750 0.3750 (   969 PWs)   bands (ev):

    -3.5430   5.0102   5.0538   6.3496   8.0940   9.0702   9.0747   9.3798
     9.4635   9.5285   9.7285   9.8360   9.8779  10.2763  10.3453  10.5097
    10.7791  11.2564  11.2773  11.3392  11.4210  11.5535  11.8731  12.5307
    13.6313  16.0665  16.5619  18.4517  19.9122  21.6607

          k = 0.1250 0.3750-0.1250 (   954 PWs)   bands (ev):

    -3.9002   4.9551   6.5875   6.6042   7.5693   8.6601   8.9621   9.2225
     9.2480   9.2734   9.7447  10.0567  10.1242  10.3326  10.3775  10.6481
    10.9326  11.2030  11.2749  11.3812  11.4685  11.5931  11.7755  12.0524
    14.8391  15.2655  17.0262  18.6902  20.1870  21.6675

          k = 0.3750 0.3750 0.3750 (   970 PWs)   bands (ev):

    -3.1745   4.9109   4.9110   4.9560   8.2406   9.0392   9.2373   9.2383
     9.7307   9.7313   9.9334  10.1991  10.1992  10.3516  10.3518  10.5373
    11.0351  11.2511  11.3298  11.3303  11.4566  11.4568  12.5414  12.5414
    14.3064  14.3070  14.4892  17.8701  20.2717  21.2958

          k = 0.3750 0.3750-0.1250 (   969 PWs)   bands (ev):

    -3.5430   5.0102   5.0538   6.3496   8.0940   9.0702   9.0747   9.3798
     9.4635   9.5285   9.7284   9.8360   9.8780  10.2763  10.3453  10.5096
    10.7791  11.2564  11.2773  11.3392  11.4210  11.5535  11.8731  12.5307
    13.6314  16.0665  16.5618  18.4517  19.9122  21.6607

          k = 0.3750-0.1250 0.1250 (   954 PWs)   bands (ev):

    -3.9002   4.9551   6.5873   6.6039   7.5697   8.6603   8.9628   9.2232
     9.2479   9.2740   9.7446  10.0559  10.1237  10.3330  10.3779  10.6483
    10.9327  11.2029  11.2748  11.3804  11.4684  11.5927  11.7753  12.0516
    14.8394  15.2657  17.0263  18.6907  20.1868  21.6676

          k = 0.3750-0.1250-0.3750 (   969 PWs)   bands (ev):

    -3.5429   5.0102   5.0538   6.3493   8.0942   9.0704   9.0753   9.3808
     9.4631   9.5296   9.7286   9.8357   9.8773  10.2758  10.3452  10.5096
    10.7788  11.2563  11.2776  11.3387  11.4208  11.5532  11.8728  12.5297
    13.6314  16.0667  16.5624  18.4515  19.9125  21.6613

          k = 0.1250 0.3750 0.1250 (   954 PWs)   bands (ev):

    -3.9002   4.9551   6.5875   6.6042   7.5693   8.6601   8.9621   9.2225
     9.2480   9.2734   9.7447  10.0567  10.1242  10.3326  10.3775  10.6481
    10.9326  11.2030  11.2749  11.3812  11.4685  11.5931  11.7755  12.0524
    14.8391  15.2655  17.0262  18.6902  20.1870  21.6675

          k = 0.1250 0.3750-0.3750 (   969 PWs)   bands (ev):

    -3.5430   5.0102   5.0538   6.3496   8.0940   9.0702   9.0747   9.3798
     9.4635   9.5285   9.7285   9.8360   9.8779  10.2763  10.3453  10.5097
    10.7791  11.2564  11.2773  11.3392  11.4210  11.5535  11.8731  12.5307
    13.6313  16.0665  16.5619  18.4517  19.9122  21.6607

          k = 0.3750-0.3750 0.1250 (   969 PWs)   bands (ev):

    -3.5430   5.0102   5.0538   6.3496   8.0940   9.0702   9.0747   9.3798
     9.4635   9.5285   9.7284   9.8360   9.8780  10.2763  10.3453  10.5096
    10.7791  11.2564  11.2773  11.3392  11.4210  11.5535  11.8731  12.5307
    13.6314  16.0665  16.5618  18.4517  19.9122  21.6607

          k = 0.3750-0.3750-0.3750 (   970 PWs)   bands (ev):

    -3.1745   4.9109   4.9110   4.9560   8.2406   9.0392   9.2373   9.2383
     9.7307   9.7313   9.9334  10.1991  10.1992  10.3516  10.3518  10.5373
    11.0351  11.2511  11.3298  11.3303  11.4566  11.4568  12.5414  12.5414
    14.3064  14.3070  14.4892  17.8701  20.2717  21.2958

          k = 0.3750 0.1250 0.3750 (   969 PWs)   bands (ev):

    -3.5429   5.0102   5.0538   6.3493   8.0942   9.0704   9.0753   9.3808
     9.4631   9.5296   9.7286   9.8357   9.8773  10.2758  10.3452  10.5096
    10.7788  11.2563  11.2776  11.3387  11.4208  11.5532  11.8728  12.5297
    13.6314  16.0667  16.5624  18.4515  19.9125  21.6613

          k = 0.3750 0.1250-0.1250 (   954 PWs)   bands (ev):

    -3.9002   4.9551   6.5873   6.6039   7.5697   8.6603   8.9628   9.2232
     9.2479   9.2740   9.7446  10.0559  10.1237  10.3330  10.3779  10.6483
    10.9327  11.2029  11.2748  11.3804  11.4684  11.5927  11.7753  12.0516
    14.8394  15.2657  17.0263  18.6907  20.1868  21.6676

 ------ SPIN DOWN ----------


          k = 0.1250 0.1250 0.1250 (   964 PWs)   bands (ev):

    -4.2578   5.8843   6.9892   6.9893   7.3924   8.7186   8.7189   8.7789
     8.7792   9.0048   9.9720  10.1116  10.1118  10.3221  10.3229  10.8581
    11.1087  11.2720  11.2724  11.5576  11.5579  11.6281  11.8388  11.8389
    14.2494  17.0029  17.0032  17.1920  20.8226  20.8226

          k = 0.1250 0.1250-0.3750 (   954 PWs)   bands (ev):

    -3.9002   4.9551   6.5873   6.6039   7.5697   8.6603   8.9628   9.2232
     9.2479   9.2741   9.7446  10.0559  10.1236  10.3329  10.3779  10.6483
    10.9327  11.2029  11.2748  11.3804  11.4684  11.5927  11.7753  12.0516
    14.8394  15.2657  17.0263  18.6907  20.1868  21.6676

          k = 0.1250 0.1250 0.3750 (   954 PWs)   bands (ev):

    -3.9002   4.9551   6.5873   6.6039   7.5697   8.6603   8.9628   9.2232
     9.2479   9.2741   9.7446  10.0559  10.1236  10.3329  10.3779  10.6483
    10.9327  11.2029  11.2748  11.3804  11.4684  11.5927  11.7753  12.0516
    14.8394  15.2657  17.0263  18.6907  20.1868  21.6676

          k = 0.1250 0.1250-0.1250 (   964 PWs)   bands (ev):

    -4.2578   5.8843   6.9892   6.9893   7.3924   8.7186   8.7189   8.7789
     8.7792   9.0048   9.9720  10.1116  10.1118  10.3221  10.3229  10.8581
    11.1087  11.2720  11.2724  11.5576  11.5579  11.6281  11.8388  11.8389
    14.2494  17.0029  17.0032  17.1920  20.8226  20.8226

          k = 0.1250 0.3750 0.3750 (   969 PWs)   bands (ev):

    -3.5430   5.0102   5.0538   6.3496   8.0940   9.0702   9.0747   9.3798
     9.4635   9.5285   9.7285   9.8360   9.8779  10.2763  10.3453  10.5097
    10.7791  11.2564  11.2773  11.3392  11.4210  11.5535  11.8731  12.5307
    13.6313  16.0666  16.5619  18.4517  19.9122  21.6607

          k = 0.1250 0.3750-0.1250 (   954 PWs)   bands (ev):

    -3.9002   4.9551   6.5875   6.6042   7.5693   8.6601   8.9621   9.2225
     9.2480   9.2734   9.7447  10.0567  10.1242  10.3326  10.3775  10.6481
    10.9326  11.2030  11.2749  11.3812  11.4685  11.5931  11.7755  12.0524
    14.8391  15.2655  17.0262  18.6902  20.1870  21.6675

          k = 0.3750 0.3750 0.3750 (   970 PWs)   bands (ev):

    -3.1744   4.9109   4.9110   4.9560   8.2406   9.0392   9.2373   9.2383
     9.7307   9.7313   9.9334  10.1991  10.1992  10.3516  10.3518  10.5373
    11.0351  11.2511  11.3298  11.3303  11.4566  11.4568  12.5414  12.5414
    14.3064  14.3070  14.4892  17.8701  20.2717  21.2958

          k = 0.3750 0.3750-0.1250 (   969 PWs)   bands (ev):

    -3.5430   5.0102   5.0538   6.3496   8.0940   9.0702   9.0747   9.3798
     9.4635   9.5285   9.7284   9.8360   9.8780  10.2763  10.3453  10.5096
    10.7791  11.2564  11.2773  11.3392  11.4210  11.5535  11.8731  12.5307
    13.6314  16.0665  16.5618  18.4517  19.9122  21.6607

          k = 0.3750-0.1250 0.1250 (   954 PWs)   bands (ev):

    -3.9002   4.9551   6.5873   6.6039   7.5697   8.6603   8.9628   9.2232
     9.2479   9.2740   9.7446  10.0559  10.1237  10.3330  10.3779  10.6483
    10.9327  11.2029  11.2748  11.3804  11.4684  11.5927  11.7753  12.0516
    14.8394  15.2657  17.0263  18.6907  20.1868  21.6676

          k = 0.3750-0.1250-0.3750 (   969 PWs)   bands (ev):

    -3.5429   5.0102   5.0538   6.3493   8.0942   9.0704   9.0753   9.3808
     9.4631   9.5296   9.7286   9.8357   9.8773  10.2758  10.3452  10.5096
    10.7788  11.2563  11.2776  11.3387  11.4208  11.5532  11.8728  12.5297
    13.6314  16.0667  16.5624  18.4515  19.9125  21.6613

          k = 0.1250 0.3750 0.1250 (   954 PWs)   bands (ev):

    -3.9002   4.9551   6.5875   6.6042   7.5693   8.6601   8.9621   9.2225
     9.2480   9.2734   9.7447  10.0567  10.1242  10.3326  10.3775  10.6481
    10.9326  11.2030  11.2749  11.3812  11.4685  11.5931  11.7755  12.0524
    14.8391  15.2655  17.0262  18.6902  20.1870  21.6675

          k = 0.1250 0.3750-0.3750 (   969 PWs)   bands (ev):

    -3.5430   5.0102   5.0538   6.3496   8.0940   9.0702   9.0747   9.3798
     9.4635   9.5285   9.7285   9.8360   9.8779  10.2763  10.3453  10.5097
    10.7791  11.2564  11.2773  11.3392  11.4210  11.5535  11.8731  12.5307
    13.6313  16.0666  16.5619  18.4517  19.9122  21.6607

          k = 0.3750-0.3750 0.1250 (   969 PWs)   bands (ev):

    -3.5430   5.0102   5.0538   6.3496   8.0940   9.0702   9.0747   9.3798
     9.4635   9.5285   9.7284   9.8360   9.8780  10.2763  10.3453  10.5096
    10.7791  11.2564  11.2773  11.3392  11.4210  11.5535  11.8731  12.5307
    13.6314  16.0665  16.5618  18.4517  19.9122  21.6607

          k = 0.3750-0.3750-0.3750 (   970 PWs)   bands (ev):

    -3.1744   4.9109   4.9110   4.9560   8.2406   9.0392   9.2373   9.2383
     9.7307   9.7313   9.9334  10.1991  10.1992  10.3516  10.3518  10.5373
    11.0351  11.2511  11.3298  11.3303  11.4566  11.4568  12.5414  12.5414
    14.3064  14.3070  14.4892  17.8701  20.2717  21.2958

          k = 0.3750 0.1250 0.3750 (   969 PWs)   bands (ev):

    -3.5429   5.0102   5.0538   6.3493   8.0942   9.0704   9.0753   9.3808
     9.4631   9.5296   9.7286   9.8357   9.8773  10.2758  10.3452  10.5096
    10.7788  11.2563  11.2776  11.3387  11.4208  11.5532  11.8728  12.5297
    13.6314  16.0667  16.5624  18.4515  19.9125  21.6613

          k = 0.3750 0.1250-0.1250 (   954 PWs)   bands (ev):

    -3.9002   4.9551   6.5873   6.6039   7.5697   8.6603   8.9628   9.2232
     9.2479   9.2740   9.7446  10.0559  10.1237  10.3330  10.3779  10.6483
    10.9327  11.2029  11.2748  11.3804  11.4684  11.5927  11.7753  12.0516
    14.8394  15.2657  17.0263  18.6907  20.1868  21.6676

     the Fermi energy is    14.1935 ev

     Writing output data file Cu2N.save

                                                                                

     bravais-lattice index     =            0
     lattice parameter (alat)  =       7.0298  a.u.
     unit-cell volume          =     347.3965 (a.u.)^3
     number of atoms/cell      =            5
     number of atomic types    =            2
     kinetic-energy cut-off    =      30.0000  Ry
     charge density cut-off    =     120.0000  Ry
     convergence threshold     =      1.0E-14
     beta                      =       0.7000
     number of iterations used =            4
     Exchange-correlation      =  SLA  PW   PBX  PBC ( 1  4  3  4 0 0)


     celldm(1)=    7.02978  celldm(2)=    0.00000  celldm(3)=    0.00000
     celldm(4)=    0.00000  celldm(5)=    0.00000  celldm(6)=    0.00000

     crystal axes: (cart. coord. in units of alat)
               a(1) = (  1.0000  0.0000  0.0000 )  
               a(2) = (  0.0000  1.0000  0.0000 )  
               a(3) = (  0.0000  0.0000  1.0000 )  

     reciprocal axes: (cart. coord. in units 2 pi/alat)
               b(1) = (  1.0000  0.0000  0.0000 )  
               b(2) = (  0.0000  1.0000  0.0000 )  
               b(3) = (  0.0000  0.0000  1.0000 )  


     Atoms inside the unit cell: 

     Cartesian axes

     site n.  atom      mass           positions (alat units)
        1     Cu  63.5460   tau(    1) = (    0.00000    0.00000    0.00000  )
        2     Cu  63.5460   tau(    2) = (    0.50000    0.50000    0.00000  )
        3     Cu  63.5460   tau(    3) = (    0.00000    0.50000    0.50000  )
        4     Cu  63.5460   tau(    4) = (    0.50000    0.00000    0.50000  )
        5     N   14.0070   tau(    5) = (    0.00000    0.50000    1.00000  )

     Computing dynamical matrix for 
                    q = (   0.0000000   0.0000000  -0.5000000 )

      9 Sym.Ops. (with q -> -q+G )


     G cutoff =  150.2122  (    652 G-vectors)     FFT grid: ( 25, 25, 25)

     number of k points=    32  gaussian smearing, width (Ry)=  0.0200

     PseudoPot. # 1 for Cu read from file:
     ../../pseudo/Cu.pbe-dn-kjpaw_psl.1.0.0.UPF
     MD5 check sum: cfffd1f38ee05704b3e17f46f1730a6f
     Pseudo is Projector augmented-wave + core cor, Zval = 11.0
     Generated using "atomic" code by A. Dal Corso  v.6.3
     Shape of augmentation charge: PSQ
     Using radial grid of 1199 points,  6 beta functions with: 
                l(1) =   0
                l(2) =   0
                l(3) =   1
                l(4) =   1
                l(5) =   2
                l(6) =   2
     Q(r) pseudized with 0 coefficients 


     PseudoPot. # 2 for  N read from file:
     ../../pseudo/N.pbe-n-kjpaw_psl.1.0.0.UPF
     MD5 check sum: 14c48229446f9f2d411169a3abcbc3fa
     Pseudo is Projector augmented-wave + core cor, Zval =  5.0
     Generated using "atomic" code by A. Dal Corso  v.6.3
     Shape of augmentation charge: PSQ
     Using radial grid of 1085 points,  4 beta functions with: 
                l(1) =   0
                l(2) =   0
                l(3) =   1
                l(4) =   1
     Q(r) pseudized with 0 coefficients 


     Mode symmetry, D_2h (mmm)  point group:


     Atomic displacements:
     There are  15 irreducible representations

     Representation     1      1 modes -A_g  To be done

     Representation     2      1 modes -A_g  To be done

     Representation     3      1 modes -B_2g  To be done

     Representation     4      1 modes -B_2g  To be done

     Representation     5      1 modes -B_3g  To be done

     Representation     6      1 modes -B_3g  To be done

     Representation     7      1 modes -B_1u  To be done

     Representation     8      1 modes -B_1u  To be done

     Representation     9      1 modes -B_1u  To be done

     Representation    10      1 modes -B_2u  To be done

     Representation    11      1 modes -B_2u  To be done

     Representation    12      1 modes -B_2u  To be done

     Representation    13      1 modes -B_3u  To be done

     Representation    14      1 modes -B_3u  To be done

     Representation    15      1 modes -B_3u  To be done



     Alpha used in Ewald sum =   1.1000
     PHONON       : 11m19.72s CPU    23m28.74s WALL



     Representation #  1 mode #   1

     Self-consistent Calculation

      iter #   1 total cpu time :  1421.6 secs   av.it.:   9.8
      thresh= 1.000E-02 alpha_mix =  0.700 |ddv_scf|^2 =  1.568E-03

      iter #   2 total cpu time :  1435.7 secs   av.it.:  14.4
      thresh= 3.960E-03 alpha_mix =  0.700 |ddv_scf|^2 =  6.623E-02

      iter #   3 total cpu time :  1451.5 secs   av.it.:  12.6
      thresh= 1.000E-02 alpha_mix =  0.700 |ddv_scf|^2 =  2.603E-04

      iter #   4 total cpu time :  1464.4 secs   av.it.:  13.0
      thresh= 1.613E-03 alpha_mix =  0.700 |ddv_scf|^2 =  4.323E-05

      iter #   5 total cpu time :  1478.1 secs   av.it.:  12.6
      thresh= 6.575E-04 alpha_mix =  0.700 |ddv_scf|^2 =  5.501E-06

      iter #   6 total cpu time :  1490.5 secs   av.it.:  12.0
      thresh= 2.345E-04 alpha_mix =  0.700 |ddv_scf|^2 =  5.995E-09

      iter #   7 total cpu time :  1503.7 secs   av.it.:  13.1
      thresh= 7.743E-06 alpha_mix =  0.700 |ddv_scf|^2 =  1.247E-09

      iter #   8 total cpu time :  1519.0 secs   av.it.:  14.6
      thresh= 3.531E-06 alpha_mix =  0.700 |ddv_scf|^2 =  3.413E-09

      iter #   9 total cpu time :  1533.5 secs   av.it.:  13.4
      thresh= 5.842E-06 alpha_mix =  0.700 |ddv_scf|^2 =  3.354E-10

      iter #  10 total cpu time :  1546.3 secs   av.it.:  12.0
      thresh= 1.831E-06 alpha_mix =  0.700 |ddv_scf|^2 =  9.255E-12

      iter #  11 total cpu time :  1559.5 secs   av.it.:  13.2
      thresh= 3.042E-07 alpha_mix =  0.700 |ddv_scf|^2 =  4.379E-12

      iter #  12 total cpu time :  1572.9 secs   av.it.:  13.4
      thresh= 2.093E-07 alpha_mix =  0.700 |ddv_scf|^2 =  3.113E-13

      iter #  13 total cpu time :  1586.0 secs   av.it.:  12.9
      thresh= 5.580E-08 alpha_mix =  0.700 |ddv_scf|^2 =  4.172E-14

      iter #  14 total cpu time :  1600.7 secs   av.it.:  12.5
      thresh= 2.043E-08 alpha_mix =  0.700 |ddv_scf|^2 =  9.529E-16

     End of self-consistent calculation

     Convergence has been achieved 


     Representation #  2 mode #   2

     Self-consistent Calculation

      iter #   1 total cpu time :  1614.8 secs   av.it.:   9.6
      thresh= 1.000E-02 alpha_mix =  0.700 |ddv_scf|^2 =  1.394E-03

      iter #   2 total cpu time :  1628.8 secs   av.it.:  14.4
      thresh= 3.733E-03 alpha_mix =  0.700 |ddv_scf|^2 =  5.542E-02

      iter #   3 total cpu time :  1643.0 secs   av.it.:  12.6
      thresh= 1.000E-02 alpha_mix =  0.700 |ddv_scf|^2 =  3.965E-04

      iter #   4 total cpu time :  1656.4 secs   av.it.:  12.9
      thresh= 1.991E-03 alpha_mix =  0.700 |ddv_scf|^2 =  1.135E-04

      iter #   5 total cpu time :  1670.4 secs   av.it.:  12.4
      thresh= 1.065E-03 alpha_mix =  0.700 |ddv_scf|^2 =  3.282E-06

      iter #   6 total cpu time :  1685.4 secs   av.it.:  12.2
      thresh= 1.812E-04 alpha_mix =  0.700 |ddv_scf|^2 =  2.892E-09

      iter #   7 total cpu time :  1698.8 secs   av.it.:  14.5
      thresh= 5.378E-06 alpha_mix =  0.700 |ddv_scf|^2 =  2.394E-09

      iter #   8 total cpu time :  1713.0 secs   av.it.:  14.5
      thresh= 4.893E-06 alpha_mix =  0.700 |ddv_scf|^2 =  4.223E-09

      iter #   9 total cpu time :  1726.3 secs   av.it.:  12.9
      thresh= 6.498E-06 alpha_mix =  0.700 |ddv_scf|^2 =  2.714E-10

      iter #  10 total cpu time :  1740.2 secs   av.it.:  12.0
      thresh= 1.647E-06 alpha_mix =  0.700 |ddv_scf|^2 =  2.582E-13

      iter #  11 total cpu time :  1754.3 secs   av.it.:  14.1
      thresh= 5.081E-08 alpha_mix =  0.700 |ddv_scf|^2 =  6.012E-13

      iter #  12 total cpu time :  1767.8 secs   av.it.:  13.0
      thresh= 7.754E-08 alpha_mix =  0.700 |ddv_scf|^2 =  1.069E-13

      iter #  13 total cpu time :  1781.8 secs   av.it.:  12.6
      thresh= 3.269E-08 alpha_mix =  0.700 |ddv_scf|^2 =  9.371E-15

     End of self-consistent calculation

     Convergence has been achieved 


     Representation #  3 mode #   3

     Self-consistent Calculation

      iter #   1 total cpu time :  1794.5 secs   av.it.:   8.4
      thresh= 1.000E-02 alpha_mix =  0.700 |ddv_scf|^2 =  1.529E-05

      iter #   2 total cpu time :  1808.7 secs   av.it.:  13.6
      thresh= 3.910E-04 alpha_mix =  0.700 |ddv_scf|^2 =  1.242E-06

      iter #   3 total cpu time :  1822.0 secs   av.it.:  13.8
      thresh= 1.114E-04 alpha_mix =  0.700 |ddv_scf|^2 =  2.492E-08

      iter #   4 total cpu time :  1835.4 secs   av.it.:  13.2
      thresh= 1.579E-05 alpha_mix =  0.700 |ddv_scf|^2 =  2.261E-10

      iter #   5 total cpu time :  1848.9 secs   av.it.:  13.4
      thresh= 1.504E-06 alpha_mix =  0.700 |ddv_scf|^2 =  4.778E-12

      iter #   6 total cpu time :  1863.2 secs   av.it.:  12.5
      thresh= 2.186E-07 alpha_mix =  0.700 |ddv_scf|^2 =  9.776E-15

     End of self-consistent calculation

     Convergence has been achieved 


     Representation #  4 mode #   4

     Self-consistent Calculation

      iter #   1 total cpu time :  1876.7 secs   av.it.:   8.2
      thresh= 1.000E-02 alpha_mix =  0.700 |ddv_scf|^2 =  1.619E-05

      iter #   2 total cpu time :  1890.0 secs   av.it.:  13.6
      thresh= 4.024E-04 alpha_mix =  0.700 |ddv_scf|^2 =  1.460E-06

      iter #   3 total cpu time :  1904.6 secs   av.it.:  13.8
      thresh= 1.208E-04 alpha_mix =  0.700 |ddv_scf|^2 =  2.274E-08

      iter #   4 total cpu time :  1919.4 secs   av.it.:  13.2
      thresh= 1.508E-05 alpha_mix =  0.700 |ddv_scf|^2 =  2.162E-10

      iter #   5 total cpu time :  1933.7 secs   av.it.:  13.4
      thresh= 1.470E-06 alpha_mix =  0.700 |ddv_scf|^2 =  5.366E-12

      iter #   6 total cpu time :  1947.3 secs   av.it.:  12.1
      thresh= 2.317E-07 alpha_mix =  0.700 |ddv_scf|^2 =  5.636E-15

     End of self-consistent calculation

     Convergence has been achieved 


     Representation #  5 mode #   5

     Self-consistent Calculation

      iter #   1 total cpu time :  1959.6 secs   av.it.:   8.5
      thresh= 1.000E-02 alpha_mix =  0.700 |ddv_scf|^2 =  1.529E-05

      iter #   2 total cpu time :  1973.6 secs   av.it.:  13.6
      thresh= 3.910E-04 alpha_mix =  0.700 |ddv_scf|^2 =  1.240E-06

      iter #   3 total cpu time :  1988.8 secs   av.it.:  13.8
      thresh= 1.114E-04 alpha_mix =  0.700 |ddv_scf|^2 =  2.486E-08

      iter #   4 total cpu time :  2002.9 secs   av.it.:  13.2
      thresh= 1.577E-05 alpha_mix =  0.700 |ddv_scf|^2 =  2.231E-10

      iter #   5 total cpu time :  2017.3 secs   av.it.:  13.4
      thresh= 1.494E-06 alpha_mix =  0.700 |ddv_scf|^2 =  4.730E-12

      iter #   6 total cpu time :  2030.5 secs   av.it.:  12.5
      thresh= 2.175E-07 alpha_mix =  0.700 |ddv_scf|^2 =  9.653E-15

     End of self-consistent calculation

     Convergence has been achieved 


     Representation #  6 mode #   6

     Self-consistent Calculation

      iter #   1 total cpu time :  2043.7 secs   av.it.:   8.0
      thresh= 1.000E-02 alpha_mix =  0.700 |ddv_scf|^2 =  1.619E-05

      iter #   2 total cpu time :  2058.3 secs   av.it.:  13.8
      thresh= 4.024E-04 alpha_mix =  0.700 |ddv_scf|^2 =  1.460E-06

      iter #   3 total cpu time :  2072.3 secs   av.it.:  13.8
      thresh= 1.208E-04 alpha_mix =  0.700 |ddv_scf|^2 =  2.278E-08

      iter #   4 total cpu time :  2085.3 secs   av.it.:  13.2
      thresh= 1.509E-05 alpha_mix =  0.700 |ddv_scf|^2 =  2.180E-10

      iter #   5 total cpu time :  2099.4 secs   av.it.:  13.4
      thresh= 1.476E-06 alpha_mix =  0.700 |ddv_scf|^2 =  5.406E-12

      iter #   6 total cpu time :  2113.1 secs   av.it.:  12.1
      thresh= 2.325E-07 alpha_mix =  0.700 |ddv_scf|^2 =  5.740E-15

     End of self-consistent calculation

     Convergence has been achieved 


     Representation #  7 mode #   7

     Self-consistent Calculation

      iter #   1 total cpu time :  2126.6 secs   av.it.:   9.9
      thresh= 1.000E-02 alpha_mix =  0.700 |ddv_scf|^2 =  8.168E-04

      iter #   2 total cpu time :  2140.7 secs   av.it.:  14.2
      thresh= 2.858E-03 alpha_mix =  0.700 |ddv_scf|^2 =  1.536E-02

      iter #   3 total cpu time :  2154.6 secs   av.it.:  12.1
      thresh= 1.000E-02 alpha_mix =  0.700 |ddv_scf|^2 =  1.937E-04

      iter #   4 total cpu time :  2168.5 secs   av.it.:  13.0
      thresh= 1.392E-03 alpha_mix =  0.700 |ddv_scf|^2 =  2.626E-05

      iter #   5 total cpu time :  2182.4 secs   av.it.:  13.0
      thresh= 5.124E-04 alpha_mix =  0.700 |ddv_scf|^2 =  1.130E-05

      iter #   6 total cpu time :  2196.1 secs   av.it.:  12.4
      thresh= 3.362E-04 alpha_mix =  0.700 |ddv_scf|^2 =  3.083E-09

      iter #   7 total cpu time :  2210.0 secs   av.it.:  13.4
      thresh= 5.553E-06 alpha_mix =  0.700 |ddv_scf|^2 =  4.145E-10

      iter #   8 total cpu time :  2223.7 secs   av.it.:  13.5
      thresh= 2.036E-06 alpha_mix =  0.700 |ddv_scf|^2 =  1.180E-10

      iter #   9 total cpu time :  2236.9 secs   av.it.:  13.0
      thresh= 1.086E-06 alpha_mix =  0.700 |ddv_scf|^2 =  9.460E-13

      iter #  10 total cpu time :  2251.5 secs   av.it.:  13.5
      thresh= 9.726E-08 alpha_mix =  0.700 |ddv_scf|^2 =  3.826E-13

      iter #  11 total cpu time :  2266.2 secs   av.it.:  13.4
      thresh= 6.186E-08 alpha_mix =  0.700 |ddv_scf|^2 =  8.973E-14

      iter #  12 total cpu time :  2281.4 secs   av.it.:  13.2
      thresh= 2.995E-08 alpha_mix =  0.700 |ddv_scf|^2 =  7.214E-16

     End of self-consistent calculation

     Convergence has been achieved 


     Representation #  8 mode #   8

     Self-consistent Calculation

      iter #   1 total cpu time :  2295.5 secs   av.it.:   9.9
      thresh= 1.000E-02 alpha_mix =  0.700 |ddv_scf|^2 =  8.167E-04

      iter #   2 total cpu time :  2310.2 secs   av.it.:  14.2
      thresh= 2.858E-03 alpha_mix =  0.700 |ddv_scf|^2 =  1.536E-02

      iter #   3 total cpu time :  2323.9 secs   av.it.:  12.1
      thresh= 1.000E-02 alpha_mix =  0.700 |ddv_scf|^2 =  1.937E-04

      iter #   4 total cpu time :  2337.2 secs   av.it.:  13.0
      thresh= 1.392E-03 alpha_mix =  0.700 |ddv_scf|^2 =  2.625E-05

      iter #   5 total cpu time :  2352.1 secs   av.it.:  13.0
      thresh= 5.124E-04 alpha_mix =  0.700 |ddv_scf|^2 =  1.129E-05

      iter #   6 total cpu time :  2365.8 secs   av.it.:  12.4
      thresh= 3.360E-04 alpha_mix =  0.700 |ddv_scf|^2 =  3.112E-09

      iter #   7 total cpu time :  2380.4 secs   av.it.:  13.4
      thresh= 5.579E-06 alpha_mix =  0.700 |ddv_scf|^2 =  4.168E-10

      iter #   8 total cpu time :  2393.2 secs   av.it.:  13.5
      thresh= 2.042E-06 alpha_mix =  0.700 |ddv_scf|^2 =  1.151E-10

      iter #   9 total cpu time :  2407.0 secs   av.it.:  13.0
      thresh= 1.073E-06 alpha_mix =  0.700 |ddv_scf|^2 =  8.324E-13

      iter #  10 total cpu time :  2419.9 secs   av.it.:  13.8
      thresh= 9.124E-08 alpha_mix =  0.700 |ddv_scf|^2 =  3.752E-13

      iter #  11 total cpu time :  2433.9 secs   av.it.:  13.4
      thresh= 6.125E-08 alpha_mix =  0.700 |ddv_scf|^2 =  8.978E-14

      iter #  12 total cpu time :  2448.4 secs   av.it.:  13.2
      thresh= 2.996E-08 alpha_mix =  0.700 |ddv_scf|^2 =  7.083E-16

     End of self-consistent calculation

     Convergence has been achieved 


     Representation #  9 mode #   9

     Self-consistent Calculation

      iter #   1 total cpu time :  2461.2 secs   av.it.:   8.2
      thresh= 1.000E-02 alpha_mix =  0.700 |ddv_scf|^2 =  1.931E-04

      iter #   2 total cpu time :  2476.1 secs   av.it.:  14.1
      thresh= 1.390E-03 alpha_mix =  0.700 |ddv_scf|^2 =  4.165E-03

      iter #   3 total cpu time :  2489.7 secs   av.it.:  11.9
      thresh= 6.454E-03 alpha_mix =  0.700 |ddv_scf|^2 =  2.616E-05

      iter #   4 total cpu time :  2505.2 secs   av.it.:  12.9
      thresh= 5.115E-04 alpha_mix =  0.700 |ddv_scf|^2 =  5.037E-06

      iter #   5 total cpu time :  2519.6 secs   av.it.:  12.6
      thresh= 2.244E-04 alpha_mix =  0.700 |ddv_scf|^2 =  6.833E-09

      iter #   6 total cpu time :  2534.4 secs   av.it.:  14.1
      thresh= 8.266E-06 alpha_mix =  0.700 |ddv_scf|^2 =  9.786E-09

      iter #   7 total cpu time :  2548.1 secs   av.it.:  13.1
      thresh= 9.892E-06 alpha_mix =  0.700 |ddv_scf|^2 =  2.901E-11

      iter #   8 total cpu time :  2562.8 secs   av.it.:  13.2
      thresh= 5.386E-07 alpha_mix =  0.700 |ddv_scf|^2 =  2.424E-12

      iter #   9 total cpu time :  2576.2 secs   av.it.:  13.5
      thresh= 1.557E-07 alpha_mix =  0.700 |ddv_scf|^2 =  5.991E-13

      iter #  10 total cpu time :  2590.7 secs   av.it.:  12.9
      thresh= 7.740E-08 alpha_mix =  0.700 |ddv_scf|^2 =  1.921E-15

     End of self-consistent calculation

     Convergence has been achieved 


     Representation # 10 mode #  10

     Self-consistent Calculation

      iter #   1 total cpu time :  2603.9 secs   av.it.:   8.2
      thresh= 1.000E-02 alpha_mix =  0.700 |ddv_scf|^2 =  1.456E-05

      iter #   2 total cpu time :  2617.8 secs   av.it.:  13.4
      thresh= 3.815E-04 alpha_mix =  0.700 |ddv_scf|^2 =  8.816E-07

      iter #   3 total cpu time :  2631.8 secs   av.it.:  13.4
      thresh= 9.389E-05 alpha_mix =  0.700 |ddv_scf|^2 =  2.270E-08

      iter #   4 total cpu time :  2646.2 secs   av.it.:  13.4
      thresh= 1.507E-05 alpha_mix =  0.700 |ddv_scf|^2 =  3.283E-10

      iter #   5 total cpu time :  2659.1 secs   av.it.:  13.4
      thresh= 1.812E-06 alpha_mix =  0.700 |ddv_scf|^2 =  7.174E-12

      iter #   6 total cpu time :  2673.5 secs   av.it.:  12.0
      thresh= 2.678E-07 alpha_mix =  0.700 |ddv_scf|^2 =  2.738E-14

      iter #   7 total cpu time :  2688.0 secs   av.it.:  13.5
      thresh= 1.655E-08 alpha_mix =  0.700 |ddv_scf|^2 =  9.048E-16

     End of self-consistent calculation

     Convergence has been achieved 


     Representation # 11 mode #  11

     Self-consistent Calculation

      iter #   1 total cpu time :  2700.7 secs   av.it.:   8.2
      thresh= 1.000E-02 alpha_mix =  0.700 |ddv_scf|^2 =  1.615E-05

      iter #   2 total cpu time :  2714.3 secs   av.it.:  13.4
      thresh= 4.019E-04 alpha_mix =  0.700 |ddv_scf|^2 =  1.262E-06

      iter #   3 total cpu time :  2728.7 secs   av.it.:  13.6
      thresh= 1.123E-04 alpha_mix =  0.700 |ddv_scf|^2 =  2.118E-08

      iter #   4 total cpu time :  2742.7 secs   av.it.:  13.2
      thresh= 1.455E-05 alpha_mix =  0.700 |ddv_scf|^2 =  1.633E-10

      iter #   5 total cpu time :  2756.8 secs   av.it.:  13.4
      thresh= 1.278E-06 alpha_mix =  0.700 |ddv_scf|^2 =  5.344E-12

      iter #   6 total cpu time :  2770.7 secs   av.it.:  11.8
      thresh= 2.312E-07 alpha_mix =  0.700 |ddv_scf|^2 =  4.029E-14

      iter #   7 total cpu time :  2786.0 secs   av.it.:  13.8
      thresh= 2.007E-08 alpha_mix =  0.700 |ddv_scf|^2 =  7.788E-16

     End of self-consistent calculation

     Convergence has been achieved 


     Representation # 12 mode #  12

     Self-consistent Calculation

      iter #   1 total cpu time :  2798.6 secs   av.it.:   7.1
      thresh= 1.000E-02 alpha_mix =  0.700 |ddv_scf|^2 =  3.196E-06

      iter #   2 total cpu time :  2812.3 secs   av.it.:  13.6
      thresh= 1.788E-04 alpha_mix =  0.700 |ddv_scf|^2 =  3.625E-07

      iter #   3 total cpu time :  2826.4 secs   av.it.:  13.4
      thresh= 6.021E-05 alpha_mix =  0.700 |ddv_scf|^2 =  4.247E-10

      iter #   4 total cpu time :  2840.0 secs   av.it.:  13.2
      thresh= 2.061E-06 alpha_mix =  0.700 |ddv_scf|^2 =  3.687E-11

      iter #   5 total cpu time :  2853.1 secs   av.it.:  12.9
      thresh= 6.072E-07 alpha_mix =  0.700 |ddv_scf|^2 =  5.690E-13

      iter #   6 total cpu time :  2866.5 secs   av.it.:  12.1
      thresh= 7.543E-08 alpha_mix =  0.700 |ddv_scf|^2 =  2.507E-15

     End of self-consistent calculation

     Convergence has been achieved 


     Representation # 13 mode #  13

     Self-consistent Calculation

      iter #   1 total cpu time :  2879.7 secs   av.it.:   8.2
      thresh= 1.000E-02 alpha_mix =  0.700 |ddv_scf|^2 =  1.456E-05

      iter #   2 total cpu time :  2894.0 secs   av.it.:  13.4
      thresh= 3.816E-04 alpha_mix =  0.700 |ddv_scf|^2 =  8.824E-07

      iter #   3 total cpu time :  2907.8 secs   av.it.:  13.4
      thresh= 9.394E-05 alpha_mix =  0.700 |ddv_scf|^2 =  2.277E-08

      iter #   4 total cpu time :  2922.0 secs   av.it.:  13.4
      thresh= 1.509E-05 alpha_mix =  0.700 |ddv_scf|^2 =  3.314E-10

      iter #   5 total cpu time :  2935.2 secs   av.it.:  13.4
      thresh= 1.820E-06 alpha_mix =  0.700 |ddv_scf|^2 =  7.257E-12

      iter #   6 total cpu time :  2948.0 secs   av.it.:  12.1
      thresh= 2.694E-07 alpha_mix =  0.700 |ddv_scf|^2 =  2.751E-14

      iter #   7 total cpu time :  2961.9 secs   av.it.:  13.5
      thresh= 1.659E-08 alpha_mix =  0.700 |ddv_scf|^2 =  9.164E-16

     End of self-consistent calculation

     Convergence has been achieved 


     Representation # 14 mode #  14

     Self-consistent Calculation

      iter #   1 total cpu time :  2975.3 secs   av.it.:   8.2
      thresh= 1.000E-02 alpha_mix =  0.700 |ddv_scf|^2 =  1.615E-05

      iter #   2 total cpu time :  2989.2 secs   av.it.:  13.4
      thresh= 4.018E-04 alpha_mix =  0.700 |ddv_scf|^2 =  1.261E-06

      iter #   3 total cpu time :  3003.1 secs   av.it.:  13.6
      thresh= 1.123E-04 alpha_mix =  0.700 |ddv_scf|^2 =  2.108E-08

      iter #   4 total cpu time :  3018.1 secs   av.it.:  13.2
      thresh= 1.452E-05 alpha_mix =  0.700 |ddv_scf|^2 =  1.589E-10

      iter #   5 total cpu time :  3032.2 secs   av.it.:  13.5
      thresh= 1.261E-06 alpha_mix =  0.700 |ddv_scf|^2 =  5.202E-12

      iter #   6 total cpu time :  3045.0 secs   av.it.:  11.9
      thresh= 2.281E-07 alpha_mix =  0.700 |ddv_scf|^2 =  3.951E-14

      iter #   7 total cpu time :  3058.8 secs   av.it.:  13.9
      thresh= 1.988E-08 alpha_mix =  0.700 |ddv_scf|^2 =  7.338E-16

     End of self-consistent calculation

     Convergence has been achieved 


     Representation # 15 mode #  15

     Self-consistent Calculation

      iter #   1 total cpu time :  3071.0 secs   av.it.:   7.2
      thresh= 1.000E-02 alpha_mix =  0.700 |ddv_scf|^2 =  3.196E-06

      iter #   2 total cpu time :  3085.7 secs   av.it.:  13.7
      thresh= 1.788E-04 alpha_mix =  0.700 |ddv_scf|^2 =  3.628E-07

      iter #   3 total cpu time :  3099.8 secs   av.it.:  13.4
      thresh= 6.023E-05 alpha_mix =  0.700 |ddv_scf|^2 =  4.255E-10

      iter #   4 total cpu time :  3112.9 secs   av.it.:  13.4
      thresh= 2.063E-06 alpha_mix =  0.700 |ddv_scf|^2 =  3.710E-11

      iter #   5 total cpu time :  3125.7 secs   av.it.:  12.9
      thresh= 6.091E-07 alpha_mix =  0.700 |ddv_scf|^2 =  5.796E-13

      iter #   6 total cpu time :  3139.7 secs   av.it.:  12.2
      thresh= 7.613E-08 alpha_mix =  0.700 |ddv_scf|^2 =  2.495E-15

     End of self-consistent calculation

     Convergence has been achieved 

     Number of q in the star =    2
     List of q in the star:
          1   0.000000000   0.000000000  -0.500000000
          2  -0.500000000   0.000000000   0.000000000

     Diagonalizing the dynamical matrix

     q = (    0.000000000   0.000000000  -0.500000000 ) 

 **************************************************************************
     freq (    1) =       1.859083 [THz] =      62.012337 [cm-1]
     freq (    2) =       2.743026 [THz] =      91.497515 [cm-1]
     freq (    3) =       3.122011 [THz] =     104.139093 [cm-1]
     freq (    4) =       3.132366 [THz] =     104.484477 [cm-1]
     freq (    5) =       3.310077 [THz] =     110.412273 [cm-1]
     freq (    6) =       3.686398 [THz] =     122.965002 [cm-1]
     freq (    7) =       4.087948 [THz] =     136.359270 [cm-1]
     freq (    8) =       4.162602 [THz] =     138.849447 [cm-1]
     freq (    9) =       4.303931 [THz] =     143.563691 [cm-1]
     freq (   10) =       4.940126 [THz] =     164.784873 [cm-1]
     freq (   11) =       4.948194 [THz] =     165.053989 [cm-1]
     freq (   12) =      10.198254 [THz] =     340.177124 [cm-1]
     freq (   13) =      19.186436 [THz] =     639.990603 [cm-1]
     freq (   14) =      21.156714 [THz] =     705.712016 [cm-1]
     freq (   15) =      21.193708 [THz] =     706.945990 [cm-1]
 **************************************************************************

     Mode symmetry, D_2h (mmm)  point group:

     freq (  1 -  1) =         62.0  [cm-1]   --> B_2u               
     freq (  2 -  2) =         91.5  [cm-1]   --> B_3u               
     freq (  3 -  3) =        104.1  [cm-1]   --> B_2g               
     freq (  4 -  4) =        104.5  [cm-1]   --> B_3g               
     freq (  5 -  5) =        110.4  [cm-1]   --> B_1u               
     freq (  6 -  6) =        123.0  [cm-1]   --> B_2u               
     freq (  7 -  7) =        136.4  [cm-1]   --> B_3u               
     freq (  8 -  8) =        138.8  [cm-1]   --> B_1u               
     freq (  9 -  9) =        143.6  [cm-1]   --> A_g                
     freq ( 10 - 10) =        164.8  [cm-1]   --> B_2g               
     freq ( 11 - 11) =        165.1  [cm-1]   --> B_3g               
     freq ( 12 - 12) =        340.2  [cm-1]   --> A_g                
     freq ( 13 - 13) =        640.0  [cm-1]   --> B_1u               
     freq ( 14 - 14) =        705.7  [cm-1]   --> B_2u               
     freq ( 15 - 15) =        706.9  [cm-1]   --> B_3u               

     Calculation of q =    0.0000000  -0.5000000   0.0000000

   Info: using nr1, nr2, nr3 values from input

   Info: using nr1, nr2, nr3 values from input

     Parallelization info
     --------------------
     sticks:   dense  smooth     PW     G-vecs:    dense   smooth      PW
     Min          40      40     12                  650      650     108
     Max          41      41     13                  653      653     112
     Sum         481     481    145                 7809     7809    1309



     bravais-lattice index     =            0
     lattice parameter (alat)  =       7.0298  a.u.
     unit-cell volume          =     347.3965 (a.u.)^3
     number of atoms/cell      =            5
     number of atomic types    =            2
     number of electrons       =        49.00
     number of Kohn-Sham states=           30
     kinetic-energy cutoff     =      30.0000  Ry
     charge density cutoff     =     120.0000  Ry
     Exchange-correlation      =  SLA  PW   PBX  PBC ( 1  4  3  4 0 0)

     celldm(1)=   7.029781  celldm(2)=   0.000000  celldm(3)=   0.000000
     celldm(4)=   0.000000  celldm(5)=   0.000000  celldm(6)=   0.000000

     crystal axes: (cart. coord. in units of alat)
               a(1) = (   1.000000   0.000000   0.000000 )  
               a(2) = (   0.000000   1.000000   0.000000 )  
               a(3) = (   0.000000   0.000000   1.000000 )  

     reciprocal axes: (cart. coord. in units 2 pi/alat)
               b(1) = (  1.000000  0.000000  0.000000 )  
               b(2) = (  0.000000  1.000000  0.000000 )  
               b(3) = (  0.000000  0.000000  1.000000 )  


     PseudoPot. # 1 for Cu read from file:
     ../../pseudo/Cu.pbe-dn-kjpaw_psl.1.0.0.UPF
     MD5 check sum: cfffd1f38ee05704b3e17f46f1730a6f
     Pseudo is Projector augmented-wave + core cor, Zval = 11.0
     Generated using "atomic" code by A. Dal Corso  v.6.3
     Shape of augmentation charge: PSQ
     Using radial grid of 1199 points,  6 beta functions with: 
                l(1) =   0
                l(2) =   0
                l(3) =   1
                l(4) =   1
                l(5) =   2
                l(6) =   2
     Q(r) pseudized with 0 coefficients 


     PseudoPot. # 2 for  N read from file:
     ../../pseudo/N.pbe-n-kjpaw_psl.1.0.0.UPF
     MD5 check sum: 14c48229446f9f2d411169a3abcbc3fa
     Pseudo is Projector augmented-wave + core cor, Zval =  5.0
     Generated using "atomic" code by A. Dal Corso  v.6.3
     Shape of augmentation charge: PSQ
     Using radial grid of 1085 points,  4 beta functions with: 
                l(1) =   0
                l(2) =   0
                l(3) =   1
                l(4) =   1
     Q(r) pseudized with 0 coefficients 


     atomic species   valence    mass     pseudopotential
        Cu            11.00    63.54600     Cu( 1.00)
        N              5.00    14.00700      N( 1.00)

     Starting magnetic structure 
     atomic species   magnetization
        Cu           0.000
        N            0.000

     16 Sym. Ops., with inversion, found



   Cartesian axes

     site n.     atom                  positions (alat units)
         1           Cu  tau(   1) = (   0.0000000   0.0000000   0.0000000  )
         2           Cu  tau(   2) = (   0.5000000   0.5000000   0.0000000  )
         3           Cu  tau(   3) = (   0.0000000   0.5000000   0.5000000  )
         4           Cu  tau(   4) = (   0.5000000   0.0000000   0.5000000  )
         5           N   tau(   5) = (   0.0000000   0.5000000   1.0000000  )

     number of k points=    12  gaussian smearing, width (Ry)=  0.0200
                       cart. coord. in units 2pi/alat
        k(    1) = (   0.1250000   0.1250000   0.1250000), wk =   0.1250000
        k(    2) = (   0.1250000  -0.3750000   0.1250000), wk =   0.0000000
        k(    3) = (   0.1250000   0.1250000   0.3750000), wk =   0.2500000
        k(    4) = (   0.1250000  -0.3750000   0.3750000), wk =   0.0000000
        k(    5) = (   0.1250000   0.3750000   0.3750000), wk =   0.2500000
        k(    6) = (   0.1250000  -0.1250000   0.3750000), wk =   0.0000000
        k(    7) = (   0.3750000   0.3750000   0.3750000), wk =   0.1250000
        k(    8) = (   0.3750000  -0.1250000   0.3750000), wk =   0.0000000
        k(    9) = (   0.1250000   0.3750000   0.1250000), wk =   0.1250000
        k(   10) = (   0.1250000  -0.1250000   0.1250000), wk =   0.0000000
        k(   11) = (   0.3750000   0.1250000   0.3750000), wk =   0.1250000
        k(   12) = (   0.3750000  -0.3750000   0.3750000), wk =   0.0000000

     Dense  grid:     7809 G-vectors     FFT dimensions: (  25,  25,  25)

     Estimated max dynamical RAM per process >       0.88Mb

     Estimated total allocated dynamical RAM >      10.53Mb
     Generating pointlists ...

     Check: negative/imaginary core charge=   -0.000075    0.000000

     The potential is recalculated from file :
     ./tmp/_ph0/Cu2N.save/charge-density.dat

     Starting wfc are   40 atomic wfcs
     Checking if some PAW data can be deallocated... 

     Band Structure Calculation
     Davidson diagonalization with overlap

     ethr =  2.04E-11,  avg # of iterations = 14.3

     total cpu time spent up to now is       27.7 secs

     End of band structure calculation

 ------ SPIN UP ------------


          k = 0.1250 0.1250 0.1250 (   964 PWs)   bands (ev):

    -4.2578   5.8843   6.9892   6.9893   7.3924   8.7186   8.7189   8.7789
     8.7792   9.0048   9.9720  10.1116  10.1118  10.3221  10.3229  10.8581
    11.1087  11.2720  11.2724  11.5576  11.5579  11.6281  11.8388  11.8389
    14.2494  17.0029  17.0032  17.1920  20.8226  20.8226

          k = 0.1250-0.3750 0.1250 (   954 PWs)   bands (ev):

    -3.9002   4.9551   6.5875   6.6042   7.5693   8.6601   8.9621   9.2225
     9.2480   9.2734   9.7447  10.0567  10.1242  10.3326  10.3775  10.6481
    10.9326  11.2030  11.2749  11.3812  11.4685  11.5931  11.7755  12.0524
    14.8391  15.2655  17.0262  18.6902  20.1870  21.6675

          k = 0.1250 0.1250 0.3750 (   954 PWs)   bands (ev):

    -3.9002   4.9551   6.5873   6.6039   7.5697   8.6603   8.9628   9.2232
     9.2479   9.2741   9.7446  10.0559  10.1236  10.3329  10.3779  10.6483
    10.9327  11.2029  11.2748  11.3804  11.4684  11.5927  11.7753  12.0516
    14.8394  15.2657  17.0263  18.6907  20.1868  21.6676

          k = 0.1250-0.3750 0.3750 (   969 PWs)   bands (ev):

    -3.5430   5.0102   5.0538   6.3496   8.0940   9.0702   9.0747   9.3798
     9.4635   9.5285   9.7285   9.8360   9.8779  10.2763  10.3453  10.5097
    10.7791  11.2564  11.2773  11.3392  11.4210  11.5535  11.8731  12.5307
    13.6313  16.0665  16.5619  18.4517  19.9122  21.6607

          k = 0.1250 0.3750 0.3750 (   969 PWs)   bands (ev):

    -3.5430   5.0102   5.0538   6.3496   8.0940   9.0702   9.0747   9.3798
     9.4635   9.5285   9.7285   9.8360   9.8779  10.2763  10.3453  10.5097
    10.7791  11.2564  11.2773  11.3392  11.4210  11.5535  11.8731  12.5307
    13.6313  16.0665  16.5619  18.4517  19.9122  21.6607

          k = 0.1250-0.1250 0.3750 (   954 PWs)   bands (ev):

    -3.9002   4.9551   6.5873   6.6039   7.5697   8.6603   8.9628   9.2232
     9.2479   9.2741   9.7446  10.0559  10.1236  10.3329  10.3779  10.6483
    10.9327  11.2029  11.2748  11.3804  11.4684  11.5927  11.7753  12.0516
    14.8394  15.2657  17.0263  18.6907  20.1868  21.6676

          k = 0.3750 0.3750 0.3750 (   970 PWs)   bands (ev):

    -3.1745   4.9109   4.9110   4.9560   8.2406   9.0392   9.2373   9.2383
     9.7307   9.7313   9.9334  10.1991  10.1992  10.3516  10.3518  10.5373
    11.0351  11.2511  11.3298  11.3303  11.4566  11.4568  12.5414  12.5414
    14.3064  14.3070  14.4892  17.8701  20.2717  21.2958

          k = 0.3750-0.1250 0.3750 (   969 PWs)   bands (ev):

    -3.5429   5.0102   5.0538   6.3493   8.0942   9.0704   9.0753   9.3808
     9.4631   9.5296   9.7286   9.8357   9.8773  10.2758  10.3452  10.5096
    10.7788  11.2563  11.2776  11.3387  11.4208  11.5532  11.8728  12.5297
    13.6314  16.0667  16.5624  18.4515  19.9125  21.6613

          k = 0.1250 0.3750 0.1250 (   954 PWs)   bands (ev):

    -3.9002   4.9551   6.5875   6.6042   7.5693   8.6601   8.9621   9.2225
     9.2480   9.2734   9.7447  10.0567  10.1242  10.3326  10.3775  10.6481
    10.9326  11.2030  11.2749  11.3812  11.4685  11.5931  11.7755  12.0524
    14.8391  15.2655  17.0262  18.6902  20.1870  21.6675

          k = 0.1250-0.1250 0.1250 (   964 PWs)   bands (ev):

    -4.2578   5.8843   6.9892   6.9893   7.3924   8.7186   8.7189   8.7789
     8.7792   9.0048   9.9720  10.1116  10.1118  10.3221  10.3229  10.8581
    11.1087  11.2720  11.2724  11.5576  11.5579  11.6281  11.8388  11.8389
    14.2494  17.0029  17.0032  17.1920  20.8226  20.8226

          k = 0.3750 0.1250 0.3750 (   969 PWs)   bands (ev):

    -3.5429   5.0102   5.0538   6.3493   8.0942   9.0704   9.0753   9.3808
     9.4631   9.5296   9.7286   9.8357   9.8773  10.2758  10.3452  10.5096
    10.7788  11.2563  11.2776  11.3387  11.4208  11.5532  11.8728  12.5297
    13.6314  16.0667  16.5624  18.4515  19.9125  21.6613

          k = 0.3750-0.3750 0.3750 (   970 PWs)   bands (ev):

    -3.1745   4.9109   4.9110   4.9560   8.2406   9.0392   9.2373   9.2383
     9.7307   9.7313   9.9334  10.1991  10.1992  10.3516  10.3518  10.5373
    11.0351  11.2511  11.3298  11.3303  11.4566  11.4568  12.5414  12.5414
    14.3064  14.3070  14.4892  17.8701  20.2717  21.2958

 ------ SPIN DOWN ----------


          k = 0.1250 0.1250 0.1250 (   964 PWs)   bands (ev):

    -4.2578   5.8843   6.9892   6.9893   7.3924   8.7186   8.7189   8.7789
     8.7792   9.0048   9.9720  10.1116  10.1118  10.3221  10.3229  10.8581
    11.1087  11.2720  11.2724  11.5576  11.5579  11.6281  11.8388  11.8389
    14.2494  17.0029  17.0032  17.1920  20.8226  20.8226

          k = 0.1250-0.3750 0.1250 (   954 PWs)   bands (ev):

    -3.9002   4.9551   6.5875   6.6042   7.5693   8.6601   8.9621   9.2225
     9.2480   9.2734   9.7447  10.0567  10.1242  10.3326  10.3775  10.6481
    10.9326  11.2030  11.2749  11.3812  11.4685  11.5931  11.7755  12.0524
    14.8391  15.2655  17.0262  18.6902  20.1870  21.6675

          k = 0.1250 0.1250 0.3750 (   954 PWs)   bands (ev):

    -3.9002   4.9551   6.5873   6.6039   7.5697   8.6603   8.9628   9.2232
     9.2479   9.2741   9.7446  10.0559  10.1236  10.3329  10.3779  10.6483
    10.9327  11.2029  11.2748  11.3804  11.4684  11.5927  11.7753  12.0516
    14.8394  15.2657  17.0263  18.6907  20.1868  21.6676

          k = 0.1250-0.3750 0.3750 (   969 PWs)   bands (ev):

    -3.5430   5.0102   5.0538   6.3496   8.0940   9.0702   9.0747   9.3798
     9.4635   9.5285   9.7285   9.8360   9.8779  10.2763  10.3453  10.5097
    10.7791  11.2564  11.2773  11.3392  11.4210  11.5535  11.8731  12.5307
    13.6313  16.0666  16.5619  18.4517  19.9122  21.6607

          k = 0.1250 0.3750 0.3750 (   969 PWs)   bands (ev):

[...]

     Representation    11      2 modes -E_u  X_5' M_5'  To be done



     Alpha used in Ewald sum =   1.1000
     PHONON       :     1h 2m CPU        2h 6m WALL



     Representation #  1 mode #   1

     Self-consistent Calculation

      iter #   1 total cpu time :  7630.3 secs   av.it.:   7.7
      thresh= 1.000E-02 alpha_mix =  0.700 |ddv_scf|^2 =  2.139E-05

      iter #   2 total cpu time :  7644.6 secs   av.it.:  14.3
      thresh= 4.625E-04 alpha_mix =  0.700 |ddv_scf|^2 =  2.416E-04

      iter #   3 total cpu time :  7657.8 secs   av.it.:  12.5
      thresh= 1.554E-03 alpha_mix =  0.700 |ddv_scf|^2 =  1.184E-05

      iter #   4 total cpu time :  7670.8 secs   av.it.:  12.7
      thresh= 3.441E-04 alpha_mix =  0.700 |ddv_scf|^2 =  1.162E-07

      iter #   5 total cpu time :  7683.6 secs   av.it.:  12.7
      thresh= 3.409E-05 alpha_mix =  0.700 |ddv_scf|^2 =  3.183E-10

      iter #   6 total cpu time :  7696.5 secs   av.it.:  12.8
      thresh= 1.784E-06 alpha_mix =  0.700 |ddv_scf|^2 =  3.497E-12

      iter #   7 total cpu time :  7709.9 secs   av.it.:  12.7
      thresh= 1.870E-07 alpha_mix =  0.700 |ddv_scf|^2 =  7.037E-14

      iter #   8 total cpu time :  7722.8 secs   av.it.:  12.2
      thresh= 2.653E-08 alpha_mix =  0.700 |ddv_scf|^2 =  1.252E-15

     End of self-consistent calculation

     Convergence has been achieved 


     Representation #  2 modes #   2  3

     Self-consistent Calculation

      iter #   1 total cpu time :  7744.7 secs   av.it.:   7.8
      thresh= 1.000E-02 alpha_mix =  0.700 |ddv_scf|^2 =  5.346E-06

      iter #   2 total cpu time :  7769.4 secs   av.it.:  15.8
      thresh= 2.312E-04 alpha_mix =  0.700 |ddv_scf|^2 =  6.040E-05

      iter #   3 total cpu time :  7794.5 secs   av.it.:  14.2
      thresh= 7.771E-04 alpha_mix =  0.700 |ddv_scf|^2 =  2.961E-06

      iter #   4 total cpu time :  7819.9 secs   av.it.:  14.4
      thresh= 1.721E-04 alpha_mix =  0.700 |ddv_scf|^2 =  2.900E-08

      iter #   5 total cpu time :  7844.9 secs   av.it.:  14.2
      thresh= 1.703E-05 alpha_mix =  0.700 |ddv_scf|^2 =  7.781E-11

      iter #   6 total cpu time :  7869.7 secs   av.it.:  14.6
      thresh= 8.821E-07 alpha_mix =  0.700 |ddv_scf|^2 =  8.008E-13

      iter #   7 total cpu time :  7893.9 secs   av.it.:  14.2
      thresh= 8.949E-08 alpha_mix =  0.700 |ddv_scf|^2 =  1.555E-14

      iter #   8 total cpu time :  7919.1 secs   av.it.:  13.7
      thresh= 1.247E-08 alpha_mix =  0.700 |ddv_scf|^2 =  4.095E-16

     End of self-consistent calculation

     Convergence has been achieved 


     Representation #  3 mode #   4

     Self-consistent Calculation

      iter #   1 total cpu time :  7933.0 secs   av.it.:   7.0
      thresh= 1.000E-02 alpha_mix =  0.700 |ddv_scf|^2 =  5.236E-06

      iter #   2 total cpu time :  7945.4 secs   av.it.:  11.8
      thresh= 2.288E-04 alpha_mix =  0.700 |ddv_scf|^2 =  1.084E-07

      iter #   3 total cpu time :  7956.9 secs   av.it.:  12.3
      thresh= 3.292E-05 alpha_mix =  0.700 |ddv_scf|^2 =  1.034E-09

      iter #   4 total cpu time :  7970.1 secs   av.it.:  12.8
      thresh= 3.215E-06 alpha_mix =  0.700 |ddv_scf|^2 =  1.296E-11

      iter #   5 total cpu time :  7983.2 secs   av.it.:  12.2
      thresh= 3.600E-07 alpha_mix =  0.700 |ddv_scf|^2 =  1.515E-14

      iter #   6 total cpu time :  7995.3 secs   av.it.:  11.0
      thresh= 1.231E-08 alpha_mix =  0.700 |ddv_scf|^2 =  8.115E-16

     End of self-consistent calculation

     Convergence has been achieved 


     Representation #  4 mode #   5

     Self-consistent Calculation

      iter #   1 total cpu time :  8008.7 secs   av.it.:   8.7
      thresh= 1.000E-02 alpha_mix =  0.700 |ddv_scf|^2 =  8.585E-05

      iter #   2 total cpu time :  8022.0 secs   av.it.:  12.7
      thresh= 9.265E-04 alpha_mix =  0.700 |ddv_scf|^2 =  4.288E-04

      iter #   3 total cpu time :  8035.2 secs   av.it.:  11.2
      thresh= 2.071E-03 alpha_mix =  0.700 |ddv_scf|^2 =  7.900E-06

      iter #   4 total cpu time :  8047.2 secs   av.it.:  11.4
      thresh= 2.811E-04 alpha_mix =  0.700 |ddv_scf|^2 =  1.734E-07

      iter #   5 total cpu time :  8060.1 secs   av.it.:  11.8
      thresh= 4.164E-05 alpha_mix =  0.700 |ddv_scf|^2 =  4.299E-10

      iter #   6 total cpu time :  8073.1 secs   av.it.:  12.5
      thresh= 2.073E-06 alpha_mix =  0.700 |ddv_scf|^2 =  1.832E-12

      iter #   7 total cpu time :  8084.9 secs   av.it.:  12.0
      thresh= 1.354E-07 alpha_mix =  0.700 |ddv_scf|^2 =  3.026E-14

      iter #   8 total cpu time :  8097.3 secs   av.it.:  12.7
      thresh= 1.740E-08 alpha_mix =  0.700 |ddv_scf|^2 =  2.346E-16

     End of self-consistent calculation

     Convergence has been achieved 


     Representation #  5 mode #   6

     Self-consistent Calculation

      iter #   1 total cpu time :  8109.5 secs   av.it.:   8.8
      thresh= 1.000E-02 alpha_mix =  0.700 |ddv_scf|^2 =  1.659E-04

      iter #   2 total cpu time :  8122.4 secs   av.it.:  12.7
      thresh= 1.288E-03 alpha_mix =  0.700 |ddv_scf|^2 =  8.575E-04

      iter #   3 total cpu time :  8134.6 secs   av.it.:  11.2
      thresh= 2.928E-03 alpha_mix =  0.700 |ddv_scf|^2 =  1.395E-05

      iter #   4 total cpu time :  8146.3 secs   av.it.:  11.3
      thresh= 3.735E-04 alpha_mix =  0.700 |ddv_scf|^2 =  1.134E-07

      iter #   5 total cpu time :  8158.9 secs   av.it.:  12.0
      thresh= 3.368E-05 alpha_mix =  0.700 |ddv_scf|^2 =  2.013E-10

      iter #   6 total cpu time :  8171.0 secs   av.it.:  12.5
      thresh= 1.419E-06 alpha_mix =  0.700 |ddv_scf|^2 =  1.948E-12

      iter #   7 total cpu time :  8183.5 secs   av.it.:  11.5
      thresh= 1.396E-07 alpha_mix =  0.700 |ddv_scf|^2 =  2.501E-14

      iter #   8 total cpu time :  8197.2 secs   av.it.:  12.7
      thresh= 1.581E-08 alpha_mix =  0.700 |ddv_scf|^2 =  2.131E-16

     End of self-consistent calculation

     Convergence has been achieved 


     Representation #  6 mode #   7

     Self-consistent Calculation

      iter #   1 total cpu time :  8208.8 secs   av.it.:   8.3
      thresh= 1.000E-02 alpha_mix =  0.700 |ddv_scf|^2 =  4.896E-05

      iter #   2 total cpu time :  8221.5 secs   av.it.:  13.0
      thresh= 6.997E-04 alpha_mix =  0.700 |ddv_scf|^2 =  3.579E-05

      iter #   3 total cpu time :  8234.4 secs   av.it.:  12.3
      thresh= 5.982E-04 alpha_mix =  0.700 |ddv_scf|^2 =  5.109E-08

      iter #   4 total cpu time :  8247.6 secs   av.it.:  12.0
      thresh= 2.260E-05 alpha_mix =  0.700 |ddv_scf|^2 =  3.953E-10

      iter #   5 total cpu time :  8259.5 secs   av.it.:  12.7
      thresh= 1.988E-06 alpha_mix =  0.700 |ddv_scf|^2 =  7.405E-12

      iter #   6 total cpu time :  8272.4 secs   av.it.:  11.7
      thresh= 2.721E-07 alpha_mix =  0.700 |ddv_scf|^2 =  1.875E-14

      iter #   7 total cpu time :  8284.6 secs   av.it.:  12.7
      thresh= 1.369E-08 alpha_mix =  0.700 |ddv_scf|^2 =  8.888E-16

     End of self-consistent calculation

     Convergence has been achieved 


     Representation #  7 mode #   8

     Self-consistent Calculation

      iter #   1 total cpu time :  8296.8 secs   av.it.:   8.7
      thresh= 1.000E-02 alpha_mix =  0.700 |ddv_scf|^2 =  8.721E-05

      iter #   2 total cpu time :  8311.1 secs   av.it.:  13.2
      thresh= 9.339E-04 alpha_mix =  0.700 |ddv_scf|^2 =  6.415E-05

      iter #   3 total cpu time :  8325.2 secs   av.it.:  12.3
      thresh= 8.009E-04 alpha_mix =  0.700 |ddv_scf|^2 =  5.960E-08

      iter #   4 total cpu time :  8338.0 secs   av.it.:  12.7
      thresh= 2.441E-05 alpha_mix =  0.700 |ddv_scf|^2 =  2.893E-10

      iter #   5 total cpu time :  8349.9 secs   av.it.:  12.7
      thresh= 1.701E-06 alpha_mix =  0.700 |ddv_scf|^2 =  5.472E-12

      iter #   6 total cpu time :  8362.8 secs   av.it.:  11.7
      thresh= 2.339E-07 alpha_mix =  0.700 |ddv_scf|^2 =  2.123E-14

      iter #   7 total cpu time :  8375.3 secs   av.it.:  12.7
      thresh= 1.457E-08 alpha_mix =  0.700 |ddv_scf|^2 =  5.967E-16

     End of self-consistent calculation

     Convergence has been achieved 


     Representation #  8 mode #   9

     Self-consistent Calculation

      iter #   1 total cpu time :  8387.0 secs   av.it.:   7.2
      thresh= 1.000E-02 alpha_mix =  0.700 |ddv_scf|^2 =  5.792E-06

      iter #   2 total cpu time :  8400.3 secs   av.it.:  11.8
      thresh= 2.407E-04 alpha_mix =  0.700 |ddv_scf|^2 =  8.972E-08

      iter #   3 total cpu time :  8412.2 secs   av.it.:  12.3
      thresh= 2.995E-05 alpha_mix =  0.700 |ddv_scf|^2 =  1.656E-09

      iter #   4 total cpu time :  8424.0 secs   av.it.:  12.7
      thresh= 4.070E-06 alpha_mix =  0.700 |ddv_scf|^2 =  1.619E-11

      iter #   5 total cpu time :  8436.3 secs   av.it.:  12.0
      thresh= 4.024E-07 alpha_mix =  0.700 |ddv_scf|^2 =  1.271E-14

      iter #   6 total cpu time :  8448.9 secs   av.it.:  11.8
      thresh= 1.127E-08 alpha_mix =  0.700 |ddv_scf|^2 =  6.110E-16

     End of self-consistent calculation

     Convergence has been achieved 


     Representation #  9 modes #  10 11

     Self-consistent Calculation

      iter #   1 total cpu time :  8472.9 secs   av.it.:   8.7
      thresh= 1.000E-02 alpha_mix =  0.700 |ddv_scf|^2 =  1.156E-05

      iter #   2 total cpu time :  8497.9 secs   av.it.:  14.7
      thresh= 3.400E-04 alpha_mix =  0.700 |ddv_scf|^2 =  8.042E-06

      iter #   3 total cpu time :  8521.6 secs   av.it.:  13.8
      thresh= 2.836E-04 alpha_mix =  0.700 |ddv_scf|^2 =  1.857E-08

      iter #   4 total cpu time :  8547.2 secs   av.it.:  14.2
      thresh= 1.363E-05 alpha_mix =  0.700 |ddv_scf|^2 =  8.817E-11

      iter #   5 total cpu time :  8572.8 secs   av.it.:  14.7
      thresh= 9.390E-07 alpha_mix =  0.700 |ddv_scf|^2 =  1.292E-12

      iter #   6 total cpu time :  8598.0 secs   av.it.:  13.5
      thresh= 1.137E-07 alpha_mix =  0.700 |ddv_scf|^2 =  3.931E-15

     End of self-consistent calculation

     Convergence has been achieved 


     Representation # 10 modes #  12 13

     Self-consistent Calculation

      iter #   1 total cpu time :  8622.4 secs   av.it.:   8.6
      thresh= 1.000E-02 alpha_mix =  0.700 |ddv_scf|^2 =  1.224E-05

      iter #   2 total cpu time :  8646.8 secs   av.it.:  14.7
      thresh= 3.499E-04 alpha_mix =  0.700 |ddv_scf|^2 =  8.952E-06

      iter #   3 total cpu time :  8672.0 secs   av.it.:  13.7
      thresh= 2.992E-04 alpha_mix =  0.700 |ddv_scf|^2 =  1.274E-08

      iter #   4 total cpu time :  8695.7 secs   av.it.:  13.7
      thresh= 1.129E-05 alpha_mix =  0.700 |ddv_scf|^2 =  9.844E-11

      iter #   5 total cpu time :  8720.4 secs   av.it.:  14.4
      thresh= 9.922E-07 alpha_mix =  0.700 |ddv_scf|^2 =  1.846E-12

      iter #   6 total cpu time :  8742.9 secs   av.it.:  13.2
      thresh= 1.359E-07 alpha_mix =  0.700 |ddv_scf|^2 =  4.502E-15

     End of self-consistent calculation

     Convergence has been achieved 


     Representation # 11 modes #  14 15

     Self-consistent Calculation

      iter #   1 total cpu time :  8767.3 secs   av.it.:   8.8
      thresh= 1.000E-02 alpha_mix =  0.700 |ddv_scf|^2 =  1.156E-05

      iter #   2 total cpu time :  8792.2 secs   av.it.:  14.7
      thresh= 3.400E-04 alpha_mix =  0.700 |ddv_scf|^2 =  8.040E-06

      iter #   3 total cpu time :  8816.9 secs   av.it.:  13.8
      thresh= 2.836E-04 alpha_mix =  0.700 |ddv_scf|^2 =  1.855E-08

      iter #   4 total cpu time :  8841.2 secs   av.it.:  14.1
      thresh= 1.362E-05 alpha_mix =  0.700 |ddv_scf|^2 =  8.727E-11

      iter #   5 total cpu time :  8872.2 secs   av.it.:  14.5
      thresh= 9.342E-07 alpha_mix =  0.700 |ddv_scf|^2 =  1.279E-12

      iter #   6 total cpu time :  8898.5 secs   av.it.:  13.4
      thresh= 1.131E-07 alpha_mix =  0.700 |ddv_scf|^2 =  3.885E-15

     End of self-consistent calculation

     Convergence has been achieved 

     Number of q in the star =    1
     List of q in the star:
          1  -0.500000000  -0.500000000  -0.500000000

     Diagonalizing the dynamical matrix

     q = (   -0.500000000  -0.500000000  -0.500000000 ) 

 **************************************************************************
     freq (    1) =       2.636135 [THz] =      87.931991 [cm-1]
     freq (    2) =       2.638630 [THz] =      88.015218 [cm-1]
     freq (    3) =       2.638630 [THz] =      88.015218 [cm-1]
     freq (    4) =       3.270313 [THz] =     109.085901 [cm-1]
     freq (    5) =       3.271588 [THz] =     109.128414 [cm-1]
     freq (    6) =       3.271588 [THz] =     109.128414 [cm-1]
     freq (    7) =       5.959376 [THz] =     198.783385 [cm-1]
     freq (    8) =       5.962683 [THz] =     198.893690 [cm-1]
     freq (    9) =       5.962683 [THz] =     198.893690 [cm-1]
     freq (   10) =       9.205184 [THz] =     307.051894 [cm-1]
     freq (   11) =       9.346856 [THz] =     311.777562 [cm-1]
     freq (   12) =      11.624685 [THz] =     387.757755 [cm-1]
     freq (   13) =      18.898803 [THz] =     630.396226 [cm-1]
     freq (   14) =      18.983337 [THz] =     633.215973 [cm-1]
     freq (   15) =      18.983337 [THz] =     633.215973 [cm-1]
 **************************************************************************

     Mode symmetry, D_4h(4/mmm) point group:

     freq (  1 -  1) =         87.9  [cm-1]   --> A_1u X_1' M_1'     
     freq (  2 -  3) =         88.0  [cm-1]   --> E_u  X_5' M_5'     
     freq (  4 -  4) =        109.1  [cm-1]   --> B_1u X_2' M_2'     
     freq (  5 -  6) =        109.1  [cm-1]   --> E_u  X_5' M_5'     
     freq (  7 -  7) =        198.8  [cm-1]   --> B_1u X_2' M_2'     
     freq (  8 -  9) =        198.9  [cm-1]   --> E_u  X_5' M_5'     
     freq ( 10 - 10) =        307.1  [cm-1]   --> A_2u X_4' M_4'     
     freq ( 11 - 11) =        311.8  [cm-1]   --> B_2u X_3' M_3'     
     freq ( 12 - 12) =        387.8  [cm-1]   --> A_2u X_4' M_4'     
     freq ( 13 - 13) =        630.4  [cm-1]   --> A_1g X_1  M_1      
     freq ( 14 - 15) =        633.2  [cm-1]   --> E_g  X_5  M_5      

     init_run     :      4.89s CPU     12.63s WALL (       5 calls)
     electrons    :     34.84s CPU     54.32s WALL (       5 calls)

     Called by init_run:
     wfcinit      :      0.00s CPU      0.01s WALL (       5 calls)
     potinit      :      3.19s CPU      8.18s WALL (       5 calls)

     Called by electrons:
     c_bands      :     34.81s CPU     54.28s WALL (       5 calls)
     v_of_rho     :      0.05s CPU      0.11s WALL (       6 calls)
     newd         :      0.05s CPU      0.18s WALL (       6 calls)
     PAW_pot      :      4.17s CPU     10.10s WALL (       6 calls)

     Called by c_bands:
     init_us_2    :      0.92s CPU      1.21s WALL (    9132 calls)
     cegterg      :     32.50s CPU     49.87s WALL (     136 calls)

     Called by sum_band:

     Called by *egterg:
     h_psi        :    676.39s CPU   1531.56s WALL (  176714 calls)
     s_psi        :    242.97s CPU    244.24s WALL (  360268 calls)
     g_psi        :      0.05s CPU      0.03s WALL (    1960 calls)
     cdiaghg      :     17.27s CPU     17.98s WALL (    2096 calls)

     Called by h_psi:
     h_psi:pot    :    674.81s CPU   1529.12s WALL (  176714 calls)
     h_psi:calbec :    144.97s CPU    394.10s WALL (  176714 calls)
     vloc_psi     :    410.50s CPU   1013.00s WALL (  176714 calls)
     add_vuspsi   :    118.45s CPU    119.89s WALL (  176714 calls)

     General routines
     calbec       :    309.91s CPU    785.10s WALL (  376532 calls)
     fft          :      4.20s CPU     20.78s WALL (   21308 calls)
     ffts         :      0.50s CPU      1.56s WALL (    5410 calls)
     fftw         :    439.19s CPU   1136.63s WALL ( 7128012 calls)
     davcio       :      0.31s CPU      3.46s WALL (   48757 calls)

     Parallel routines
     fft_scatter  :    240.98s CPU    926.41s WALL ( 7154730 calls)

     PHONON       :     1h12m CPU        2h28m WALL

     INITIALIZATION: 
     phq_setup    :      0.30s CPU      0.57s WALL (       6 calls)
     phq_init     :     16.92s CPU     34.92s WALL (       6 calls)

     phq_init     :     16.92s CPU     34.92s WALL (       6 calls)
     set_drhoc    :      0.72s CPU      1.16s WALL (      18 calls)
     init_vloc    :      0.03s CPU      0.05s WALL (       6 calls)
     init_us_1    :      0.48s CPU      1.54s WALL (       6 calls)
     newd         :      0.05s CPU      0.18s WALL (       6 calls)
     dvanqq       :      2.17s CPU      4.26s WALL (       6 calls)
     drho         :     11.14s CPU     23.49s WALL (       6 calls)

     DYNAMICAL MATRIX:
     dynmat0      :      2.55s CPU      5.26s WALL (       6 calls)
     phqscf       :   4269.47s CPU   8787.92s WALL (       6 calls)
     dynmatrix    :      0.02s CPU      0.17s WALL (       6 calls)

     phqscf       :   4269.47s CPU   8787.92s WALL (       6 calls)
     solve_linter :   4261.83s CPU   8768.23s WALL (      72 calls)
     drhodv       :      7.36s CPU     16.20s WALL (      72 calls)

     dynmat0      :      2.55s CPU      5.26s WALL (       6 calls)
     dynmat_us    :      1.94s CPU      3.77s WALL (       6 calls)
     d2ionq       :      0.06s CPU      0.13s WALL (       6 calls)
     dynmatcc     :      0.52s CPU      1.19s WALL (       6 calls)

     dynmat_us    :      1.94s CPU      3.77s WALL (       6 calls)
     addusdynmat  :      0.02s CPU      0.01s WALL (       6 calls)

     phqscf       :   4269.47s CPU   8787.92s WALL (       6 calls)
     solve_linter :   4261.83s CPU   8768.23s WALL (      72 calls)

     solve_linter :   4261.83s CPU   8768.23s WALL (      72 calls)
     dvqpsi_us    :     23.73s CPU     39.17s WALL (    1200 calls)
     ortho        :     33.78s CPU     82.72s WALL (    9072 calls)
     cgsolve      :   1198.27s CPU   2656.35s WALL (    9072 calls)
     incdrhoscf   :     43.78s CPU     99.43s WALL (    9072 calls)
     addusddens   :     13.25s CPU     20.19s WALL (     623 calls)
     vpsifft      :     27.12s CPU     72.65s WALL (    7872 calls)
     dv_of_drho   :      2.73s CPU      5.75s WALL (     675 calls)
     mix_pot      :      0.53s CPU     16.02s WALL (     551 calls)
     ef_shift     :      0.09s CPU      0.15s WALL (      78 calls)
     localdos     :      0.81s CPU      1.83s WALL (      10 calls)
     psymdvscf    :     21.47s CPU     31.84s WALL (     551 calls)
     newdq        :     12.14s CPU     22.86s WALL (     551 calls)
     adddvscf     :     12.69s CPU     12.79s WALL (    7872 calls)
     drhodvus     :      0.06s CPU      0.25s WALL (      72 calls)

     dvqpsi_us    :     23.73s CPU     39.17s WALL (    1200 calls)
     dvqpsi_us_on :     18.67s CPU     19.05s WALL (    1200 calls)

     cgsolve      :   1198.27s CPU   2656.35s WALL (    9072 calls)
     ch_psi       :   1151.91s CPU   2465.60s WALL (  174482 calls)

     ch_psi       :   1151.91s CPU   2465.60s WALL (  174482 calls)
     last         :    364.25s CPU    830.67s WALL (  174482 calls)

     add_vuspsi   :    118.45s CPU    119.89s WALL (  176714 calls)

     incdrhoscf   :     43.78s CPU     99.43s WALL (    9072 calls)
     addusdbec    :     12.94s CPU     25.84s WALL (   10272 calls)

     drhodvus     :      0.06s CPU      0.25s WALL (      72 calls)

      General routines
     calbec       :    309.91s CPU    785.10s WALL (  376532 calls)
     fft          :      4.20s CPU     20.78s WALL (   21308 calls)
     ffts         :      0.50s CPU      1.56s WALL (    5410 calls)
     fftw         :    439.19s CPU   1136.63s WALL ( 7128012 calls)
     davcio       :      0.31s CPU      3.46s WALL (   48757 calls)
     write_rec    :      1.53s CPU     22.02s WALL (     623 calls)


     PHONON       :     1h12m CPU        2h28m WALL


   This run was terminated on:  17:24: 5  22Apr2020            

=------------------------------------------------------------------------------=
   JOB DONE.
=------------------------------------------------------------------------------=
