--------------------------------------------------------------------------
WARNING: Linux kernel CMA support was requested via the
btl_vader_single_copy_mechanism MCA variable, but CMA support is
not available due to restrictive ptrace settings.

The vader shared memory BTL will fall back on another single-copy
mechanism if one is available. This may result in lower performance.

  Local host: DESKTOP-L90FV74
--------------------------------------------------------------------------

     Program PWSCF v.6.0 (svn rev. 13079) starts on  1Jul2020 at 15:20:47 

     This program is part of the open-source Quantum ESPRESSO suite
     for quantum simulation of materials; please cite
         "P. Giannozzi et al., J. Phys.:Condens. Matter 21 395502 (2009);
          URL http://www.quantum-espresso.org", 
     in publications or presentations arising from this work. More details at
     http://www.quantum-espresso.org/quote

     Parallel version (MPI), running on    15 processors
     R & G space division:  proc/nbgrp/npool/nimage =      15
     Waiting for input...
     Reading input from standard input

     Current dimensions of program PWSCF are:
     Max number of different atomic species (ntypx) = 10
     Max number of k-points (npk) =  40000
     Max angular momentum in pseudopotentials (lmaxx) =  3
               file Cu.pbe-dn-kjpaw_psl.1.0.0.UPF: wavefunction(s)  4S 3D renormalized
               file N.pbe-n-kjpaw_psl.1.0.0.UPF: wavefunction(s)  2S renormalized

     Subspace diagonalization in iterative solution of the eigenvalue problem:
     one sub-group per band group will be used
     ELPA distributed-memory algorithm (size of sub-group:  2*  2 procs)


     Parallelization info
     --------------------
     sticks:   dense  smooth     PW     G-vecs:    dense   smooth      PW
     Min          32      32      9                  512      512      86
     Max          33      33     11                  514      514      90
     Sum         481     481    145                 7689     7689    1309



     bravais-lattice index     =            0
     lattice parameter (alat)  =       7.0055  a.u.
     unit-cell volume          =     343.7659 (a.u.)^3
     number of atoms/cell      =            5
     number of atomic types    =            2
     number of electrons       =        49.00
     number of Kohn-Sham states=           30
     kinetic-energy cutoff     =      30.0000  Ry
     charge density cutoff     =     120.0000  Ry
     convergence threshold     =      1.0E-10
     mixing beta               =       0.7000
     number of iterations used =            8  plain     mixing
     Exchange-correlation      =  SLA  PW   PBX  PBC ( 1  4  3  4 0 0)

     celldm(1)=   7.005497  celldm(2)=   0.000000  celldm(3)=   0.000000
     celldm(4)=   0.000000  celldm(5)=   0.000000  celldm(6)=   0.000000

     crystal axes: (cart. coord. in units of alat)
               a(1) = (   1.000000   0.000000   0.000000 )  
               a(2) = (   0.000000   0.999876   0.000000 )  
               a(3) = (   0.000000   0.000000   1.000000 )  

     reciprocal axes: (cart. coord. in units 2 pi/alat)
               b(1) = (  1.000000  0.000000  0.000000 )  
               b(2) = (  0.000000  1.000124  0.000000 )  
               b(3) = (  0.000000  0.000000  1.000000 )  


     PseudoPot. # 1 for Cu read from file:
     ../../pseudo/Cu.pbe-dn-kjpaw_psl.1.0.0.UPF
     MD5 check sum: d0575d8777d02cc05b6679c1e3a9a036
     Pseudo is Projector augmented-wave + core cor, Zval = 11.0
     Generated using "atomic" code by A. Dal Corso  v.6.3
     Shape of augmentation charge: PSQ
     Using radial grid of 1199 points,  6 beta functions with: 
                l(1) =   0
                l(2) =   0
                l(3) =   1
                l(4) =   1
                l(5) =   2
                l(6) =   2
     Q(r) pseudized with 0 coefficients 


     PseudoPot. # 2 for  N read from file:
     ../../pseudo/N.pbe-n-kjpaw_psl.1.0.0.UPF
     MD5 check sum: 57d39628416b425e94b4a4c0ec66cafa
     Pseudo is Projector augmented-wave + core cor, Zval =  5.0
     Generated using "atomic" code by A. Dal Corso  v.6.3
     Shape of augmentation charge: PSQ
     Using radial grid of 1085 points,  4 beta functions with: 
                l(1) =   0
                l(2) =   0
                l(3) =   1
                l(4) =   1
     Q(r) pseudized with 0 coefficients 


     atomic species   valence    mass     pseudopotential
        Cu            11.00    63.54600     Cu( 1.00)
        N              5.00    14.00700      N( 1.00)

     Starting magnetic structure 
     atomic species   magnetization
        Cu           0.000
        N            0.000

      4 Sym. Ops. (no inversion) found



   Cartesian axes

     site n.     atom                  positions (alat units)
         1           Cu  tau(   1) = (   0.0000000   0.0000000   0.0000000  )
         2           Cu  tau(   2) = (   0.5000000   0.4999378   0.0000000  )
         3           Cu  tau(   3) = (   0.0000000   0.4999378   0.4749170  )
         4           Cu  tau(   4) = (   0.5000000   0.0000000   0.4747944  )
         5           N   tau(   5) = (   0.0000000   0.4999378   0.9976365  )

     number of k points=     8  gaussian smearing, width (Ry)=  0.0200
                       cart. coord. in units 2pi/alat
        k(    1) = (   0.1250000   0.1250155   0.1250000), wk =   0.1250000
        k(    2) = (   0.1250000   0.1250155   0.3750000), wk =   0.1250000
        k(    3) = (   0.1250000   0.3750466   0.1250000), wk =   0.1250000
        k(    4) = (   0.1250000   0.3750466   0.3750000), wk =   0.1250000
        k(    5) = (   0.3750000   0.1250155   0.3750000), wk =   0.1250000
        k(    6) = (   0.3750000   0.3750466   0.3750000), wk =   0.1250000
        k(    7) = (   0.3750000  -0.1250155   0.1250000), wk =   0.1250000
        k(    8) = (   0.3750000  -0.3750466   0.1250000), wk =   0.1250000

     Dense  grid:     7689 G-vectors     FFT dimensions: (  25,  25,  25)

     Estimated max dynamical RAM per process >       1.45Mb

     Estimated total allocated dynamical RAM >      21.73Mb
     Generating pointlists ...
     new r_m :   0.1969 (alat units)  1.3792 (a.u.) for type    1
     new r_m :   0.1969 (alat units)  1.3792 (a.u.) for type    2

     Check: negative/imaginary core charge=   -0.000075    0.000000

     Initial potential from superposition of free atoms

     starting charge   48.99908, renormalised to   49.00000
     Starting wfc are   40 randomized atomic wfcs
     Checking if some PAW data can be deallocated... 

     total cpu time spent up to now is        4.2 secs

     per-process dynamical memory:    14.3 Mb

     Self-consistent Calculation

     iteration #  1     ecut=    30.00 Ry     beta=0.70
     Davidson diagonalization with overlap
     ethr =  1.00E-02,  avg # of iterations =  2.6

     total cpu time spent up to now is        6.8 secs

     total energy              =    -879.87042677 Ry
     Harris-Foulkes estimate   =    -880.52288840 Ry
     estimated scf accuracy    <       0.79308988 Ry

     total magnetization       =     0.00 Bohr mag/cell
     absolute magnetization    =     0.01 Bohr mag/cell

     iteration #  2     ecut=    30.00 Ry     beta=0.70
     Davidson diagonalization with overlap
     ethr =  1.62E-03,  avg # of iterations =  2.2

     total cpu time spent up to now is        9.0 secs

     total energy              =    -879.91271875 Ry
     Harris-Foulkes estimate   =    -881.00489438 Ry
     estimated scf accuracy    <       2.75436410 Ry

     total magnetization       =     0.00 Bohr mag/cell
     absolute magnetization    =     0.00 Bohr mag/cell

     iteration #  3     ecut=    30.00 Ry     beta=0.70
     Davidson diagonalization with overlap
     ethr =  1.62E-03,  avg # of iterations =  2.0

     total cpu time spent up to now is       11.0 secs

     total energy              =    -880.35157516 Ry
     Harris-Foulkes estimate   =    -880.35805825 Ry
     estimated scf accuracy    <       0.01234988 Ry

     total magnetization       =     0.00 Bohr mag/cell
     absolute magnetization    =     0.00 Bohr mag/cell

     iteration #  4     ecut=    30.00 Ry     beta=0.70
     Davidson diagonalization with overlap
     ethr =  2.52E-05,  avg # of iterations =  2.6

     total cpu time spent up to now is       12.9 secs

     total energy              =    -880.35305422 Ry
     Harris-Foulkes estimate   =    -880.35880110 Ry
     estimated scf accuracy    <       0.01885871 Ry

     total magnetization       =     0.00 Bohr mag/cell
     absolute magnetization    =     0.00 Bohr mag/cell

     iteration #  5     ecut=    30.00 Ry     beta=0.70
     Davidson diagonalization with overlap
     ethr =  2.52E-05,  avg # of iterations =  2.0

     total cpu time spent up to now is       14.7 secs

     total energy              =    -880.35587077 Ry
     Harris-Foulkes estimate   =    -880.35596172 Ry
     estimated scf accuracy    <       0.00030816 Ry

     total magnetization       =     0.00 Bohr mag/cell
     absolute magnetization    =     0.00 Bohr mag/cell

     iteration #  6     ecut=    30.00 Ry     beta=0.70
     Davidson diagonalization with overlap
     ethr =  6.29E-07,  avg # of iterations =  3.4

     total cpu time spent up to now is       16.6 secs

     total energy              =    -880.35590542 Ry
     Harris-Foulkes estimate   =    -880.35599181 Ry
     estimated scf accuracy    <       0.00024110 Ry

     total magnetization       =     0.00 Bohr mag/cell
     absolute magnetization    =     0.00 Bohr mag/cell

     iteration #  7     ecut=    30.00 Ry     beta=0.70
     Davidson diagonalization with overlap
     ethr =  4.92E-07,  avg # of iterations =  1.8

     total cpu time spent up to now is       18.3 secs

     total energy              =    -880.35593319 Ry
     Harris-Foulkes estimate   =    -880.35593829 Ry
     estimated scf accuracy    <       0.00001647 Ry

     total magnetization       =     0.00 Bohr mag/cell
     absolute magnetization    =     0.00 Bohr mag/cell

     iteration #  8     ecut=    30.00 Ry     beta=0.70
     Davidson diagonalization with overlap
     ethr =  3.36E-08,  avg # of iterations =  2.4

     total cpu time spent up to now is       20.2 secs

     total energy              =    -880.35593332 Ry
     Harris-Foulkes estimate   =    -880.35593809 Ry
     estimated scf accuracy    <       0.00001660 Ry

     total magnetization       =     0.00 Bohr mag/cell
     absolute magnetization    =     0.00 Bohr mag/cell

     iteration #  9     ecut=    30.00 Ry     beta=0.70
     Davidson diagonalization with overlap
     ethr =  3.36E-08,  avg # of iterations =  1.5

     total cpu time spent up to now is       21.9 secs

     total energy              =    -880.35593529 Ry
     Harris-Foulkes estimate   =    -880.35593551 Ry
     estimated scf accuracy    <       0.00000062 Ry

     total magnetization       =     0.00 Bohr mag/cell
     absolute magnetization    =     0.00 Bohr mag/cell

     iteration # 10     ecut=    30.00 Ry     beta=0.70
     Davidson diagonalization with overlap
     ethr =  1.26E-09,  avg # of iterations =  2.8

     total cpu time spent up to now is       24.0 secs

     total energy              =    -880.35593544 Ry
     Harris-Foulkes estimate   =    -880.35593545 Ry
     estimated scf accuracy    <       0.00000004 Ry

     total magnetization       =     0.00 Bohr mag/cell
     absolute magnetization    =     0.00 Bohr mag/cell

     iteration # 11     ecut=    30.00 Ry     beta=0.70
     Davidson diagonalization with overlap
     ethr =  8.45E-11,  avg # of iterations =  1.9

     total cpu time spent up to now is       25.8 secs

     total energy              =    -880.35593544 Ry
     Harris-Foulkes estimate   =    -880.35593544 Ry
     estimated scf accuracy    <       0.00000001 Ry

     total magnetization       =     0.00 Bohr mag/cell
     absolute magnetization    =     0.00 Bohr mag/cell

     iteration # 12     ecut=    30.00 Ry     beta=0.70
     Davidson diagonalization with overlap
     ethr =  2.07E-11,  avg # of iterations =  2.0

     total cpu time spent up to now is       27.6 secs

     total energy              =    -880.35593544 Ry
     Harris-Foulkes estimate   =    -880.35593544 Ry
     estimated scf accuracy    <       0.00000001 Ry

     total magnetization       =     0.00 Bohr mag/cell
     absolute magnetization    =     0.00 Bohr mag/cell

     iteration # 13     ecut=    30.00 Ry     beta=0.70
     Davidson diagonalization with overlap
     ethr =  2.07E-11,  avg # of iterations =  1.8

     total cpu time spent up to now is       29.3 secs

     total energy              =    -880.35593544 Ry
     Harris-Foulkes estimate   =    -880.35593544 Ry
     estimated scf accuracy    <          9.1E-10 Ry

     total magnetization       =     0.00 Bohr mag/cell
     absolute magnetization    =     0.00 Bohr mag/cell

     iteration # 14     ecut=    30.00 Ry     beta=0.70
     Davidson diagonalization with overlap
     ethr =  1.86E-12,  avg # of iterations =  2.1

     total cpu time spent up to now is       31.2 secs

     total energy              =    -880.35593544 Ry
     Harris-Foulkes estimate   =    -880.35593544 Ry
     estimated scf accuracy    <          1.8E-10 Ry

     total magnetization       =     0.00 Bohr mag/cell
     absolute magnetization    =     0.00 Bohr mag/cell

     iteration # 15     ecut=    30.00 Ry     beta=0.70
     Davidson diagonalization with overlap
     ethr =  3.60E-13,  avg # of iterations =  2.0

     Magnetic moment per site:
     atom:    1    charge:    8.1297    magn:    0.0000    constr:    0.0000
     atom:    2    charge:    8.1376    magn:    0.0000    constr:    0.0000
     atom:    3    charge:    8.1390    magn:    0.0000    constr:    0.0000
     atom:    4    charge:    8.1656    magn:    0.0000    constr:    0.0000
     atom:    5    charge:    3.8020    magn:    0.0000    constr:    0.0000

     total cpu time spent up to now is       32.9 secs

     End of self-consistent calculation

 ------ SPIN UP ------------


          k = 0.1250 0.1250 0.1250 (   952 PWs)   bands (ev):

    -4.1955   5.9831   7.0481   7.0852   7.4774   8.8259   8.8343   8.8808
     8.9309   9.1581  10.1191  10.2585  10.2664  10.4650  10.4763  11.0144
    11.2652  11.4306  11.4462  11.7338  11.7346  11.8173  12.0147  12.0212
    14.4776  17.2066  17.2250  17.4490  21.0727  21.0806

          k = 0.1250 0.1250 0.3750 (   950 PWs)   bands (ev):

    -3.8342   5.0655   6.6509   6.6671   7.6551   8.7824   9.0655   9.3570
     9.3579   9.4099   9.8887  10.2089  10.2644  10.4719  10.5366  10.8111
    11.0988  11.3734  11.4472  11.5509  11.6323  11.7764  11.9530  12.2369
    15.0334  15.5318  17.2472  18.9154  20.4476  21.9166

          k = 0.1250 0.3750 0.1250 (   950 PWs)   bands (ev):

    -3.8321   5.0296   6.6365   6.7305   7.6745   8.7740   9.0910   9.3255
     9.3774   9.4210   9.8938  10.1677  10.2514  10.4733  10.5233  10.7892
    11.0827  11.3575  11.4629  11.5740  11.6312  11.7861  11.9610  12.2445
    15.0691  15.4839  17.2399  18.9242  20.4379  21.9148

          k = 0.1250 0.3750 0.3750 (   953 PWs)   bands (ev):

    -3.4706   5.0821   5.1517   6.4191   8.2050   9.1658   9.2059   9.5084
     9.5948   9.6558   9.8816   9.9695  10.0286  10.4252  10.5005  10.6628
    10.9354  11.4279  11.4510  11.5207  11.5986  11.7320  12.0538  12.7268
    13.8404  16.2930  16.7855  18.7041  20.1501  21.9005

          k = 0.3750 0.1250 0.3750 (   953 PWs)   bands (ev):

    -3.4710   5.0825   5.1519   6.4193   8.2052   9.1658   9.2066   9.5090
     9.5945   9.6565   9.8819   9.9694  10.0279  10.4247  10.5005  10.6627
    10.9351  11.4277  11.4510  11.5204  11.5983  11.7316  12.0532  12.7256
    13.8397  16.2938  16.7861  18.7050  20.1507  21.9016

          k = 0.3750 0.3750 0.3750 (   958 PWs)   bands (ev):

    -3.0959   4.9708   4.9748   5.0603   8.3544   9.1517   9.3492   9.3765
     9.8566   9.8700  10.0666  10.3407  10.3531  10.5011  10.5065  10.6977
    11.1973  11.4189  11.5017  11.5060  11.6297  11.6372  12.7221  12.7258
    14.5058  14.5148  14.7104  18.1085  20.5222  21.5252

          k = 0.3750-0.1250 0.1250 (   950 PWs)   bands (ev):

    -3.8324   5.0299   6.6367   6.7306   7.6751   8.7739   9.0914   9.3260
     9.3773   9.4214   9.8936  10.1670  10.2503  10.4736  10.5237  10.7893
    11.0829  11.3576  11.4630  11.5730  11.6313  11.7854  11.9609  12.2434
    15.0696  15.4843  17.2402  18.9244  20.4385  21.9154

          k = 0.3750-0.3750 0.1250 (   953 PWs)   bands (ev):

    -3.4689   5.0786   5.1217   6.4611   8.2095   9.1775   9.2083   9.5113
     9.5788   9.6630   9.8792   9.9731  10.0105  10.4025  10.5018  10.6630
    10.9490  11.4136  11.4399  11.5278  11.6139  11.7310  12.0593  12.7455
    13.8289  16.2892  16.7814  18.6817  20.1469  21.8924

 ------ SPIN DOWN ----------


          k = 0.1250 0.1250 0.1250 (   952 PWs)   bands (ev):

    -4.1955   5.9831   7.0481   7.0852   7.4774   8.8259   8.8343   8.8808
     8.9309   9.1581  10.1191  10.2585  10.2664  10.4650  10.4763  11.0144
    11.2652  11.4306  11.4462  11.7338  11.7346  11.8173  12.0147  12.0212
    14.4776  17.2066  17.2250  17.4490  21.0727  21.0806

          k = 0.1250 0.1250 0.3750 (   950 PWs)   bands (ev):

    -3.8342   5.0655   6.6509   6.6671   7.6551   8.7824   9.0655   9.3570
     9.3579   9.4099   9.8887  10.2089  10.2644  10.4719  10.5366  10.8111
    11.0988  11.3734  11.4472  11.5509  11.6323  11.7764  11.9530  12.2369
    15.0334  15.5318  17.2472  18.9154  20.4476  21.9166

          k = 0.1250 0.3750 0.1250 (   950 PWs)   bands (ev):

    -3.8321   5.0296   6.6365   6.7305   7.6745   8.7741   9.0910   9.3255
     9.3774   9.4210   9.8938  10.1677  10.2514  10.4733  10.5233  10.7892
    11.0827  11.3575  11.4629  11.5740  11.6312  11.7861  11.9610  12.2445
    15.0691  15.4839  17.2399  18.9242  20.4379  21.9148

          k = 0.1250 0.3750 0.3750 (   953 PWs)   bands (ev):

    -3.4706   5.0821   5.1517   6.4191   8.2050   9.1658   9.2059   9.5084
     9.5948   9.6558   9.8816   9.9695  10.0286  10.4252  10.5005  10.6628
    10.9354  11.4279  11.4510  11.5207  11.5986  11.7320  12.0538  12.7268
    13.8404  16.2930  16.7855  18.7041  20.1501  21.9005

          k = 0.3750 0.1250 0.3750 (   953 PWs)   bands (ev):

    -3.4710   5.0825   5.1519   6.4193   8.2052   9.1658   9.2066   9.5090
     9.5945   9.6565   9.8819   9.9694  10.0279  10.4247  10.5005  10.6627
    10.9351  11.4277  11.4510  11.5204  11.5983  11.7316  12.0532  12.7256
    13.8397  16.2938  16.7861  18.7050  20.1507  21.9016

          k = 0.3750 0.3750 0.3750 (   958 PWs)   bands (ev):

    -3.0959   4.9708   4.9748   5.0603   8.3544   9.1517   9.3492   9.3765
     9.8566   9.8700  10.0666  10.3407  10.3531  10.5011  10.5065  10.6977
    11.1973  11.4189  11.5017  11.5060  11.6297  11.6372  12.7221  12.7258
    14.5058  14.5148  14.7104  18.1085  20.5222  21.5252

          k = 0.3750-0.1250 0.1250 (   950 PWs)   bands (ev):

    -3.8324   5.0299   6.6367   6.7307   7.6751   8.7739   9.0914   9.3260
     9.3774   9.4214   9.8936  10.1670  10.2503  10.4736  10.5237  10.7893
    11.0829  11.3576  11.4630  11.5730  11.6313  11.7854  11.9609  12.2434
    15.0696  15.4843  17.2402  18.9244  20.4385  21.9154

          k = 0.3750-0.3750 0.1250 (   953 PWs)   bands (ev):

    -3.4689   5.0786   5.1217   6.4611   8.2095   9.1775   9.2083   9.5113
     9.5788   9.6630   9.8792   9.9731  10.0105  10.4025  10.5018  10.6630
    10.9490  11.4136  11.4399  11.5278  11.6139  11.7310  12.0593  12.7455
    13.8289  16.2892  16.7814  18.6817  20.1469  21.8924

     the Fermi energy is    14.4066 ev

!    total energy              =    -880.35593544 Ry
     Harris-Foulkes estimate   =    -880.35593544 Ry
     estimated scf accuracy    <          5.0E-12 Ry

     total all-electron energy =    -13349.173798 Ry

     The total energy is the sum of the following terms:

     one-electron contribution =    -112.88230478 Ry
     hartree contribution      =     127.84811536 Ry
     xc contribution           =    -184.46978469 Ry
     ewald contribution        =    -343.48501919 Ry
     one-center paw contrib.   =    -367.36271247 Ry
     smearing contrib. (-TS)   =      -0.00422967 Ry

     total magnetization       =     0.00 Bohr mag/cell
     absolute magnetization    =     0.00 Bohr mag/cell

     convergence has been achieved in  15 iterations

     Writing output data file Cu2N.save

     init_run     :      0.94s CPU      3.06s WALL (       1 calls)
     electrons    :     10.70s CPU     28.73s WALL (       1 calls)

     Called by init_run:
     wfcinit      :      0.08s CPU      0.27s WALL (       1 calls)
     potinit      :      0.44s CPU      1.37s WALL (       1 calls)

     Called by electrons:
     c_bands      :      3.64s CPU      9.12s WALL (      15 calls)
     sum_band     :      0.38s CPU      1.08s WALL (      15 calls)
     v_of_rho     :      0.03s CPU      0.09s WALL (      16 calls)
     newd         :      0.09s CPU      0.15s WALL (      16 calls)
     PAW_pot      :      6.98s CPU     19.55s WALL (      16 calls)
     mix_rho      :      0.00s CPU      0.04s WALL (      15 calls)

     Called by c_bands:
     init_us_2    :      0.08s CPU      0.02s WALL (     496 calls)
     cegterg      :      3.47s CPU      8.94s WALL (     240 calls)

     Called by sum_band:
     sum_band:bec :      0.05s CPU      0.02s WALL (     240 calls)
     addusdens    :      0.09s CPU      0.10s WALL (      15 calls)

     Called by *egterg:
     h_psi        :      1.20s CPU      4.00s WALL (     785 calls)
     s_psi        :      0.14s CPU      0.13s WALL (     785 calls)
     g_psi        :      0.02s CPU      0.00s WALL (     529 calls)
     cdiaghg      :      1.53s CPU      3.28s WALL (     769 calls)

     Called by h_psi:
     h_psi:pot    :      1.20s CPU      3.99s WALL (     785 calls)
     h_psi:calbec :      0.20s CPU      0.89s WALL (     785 calls)
     vloc_psi     :      0.95s CPU      2.96s WALL (     785 calls)
     add_vuspsi   :      0.05s CPU      0.14s WALL (     785 calls)

     General routines
     calbec       :      0.30s CPU      1.12s WALL (    1025 calls)
     fft          :      0.03s CPU      0.19s WALL (     396 calls)
     fftw         :      1.00s CPU      3.51s WALL (   42756 calls)
     davcio       :      0.00s CPU      0.00s WALL (      16 calls)

     Parallel routines
     fft_scatter  :      0.73s CPU      3.32s WALL (   43152 calls)

     PWSCF        :    12.02s CPU        33.01s WALL


   This run was terminated on:  15:21:20   1Jul2020            

=------------------------------------------------------------------------------=
   JOB DONE.
=------------------------------------------------------------------------------=
