
     Program Q2R v.6.0 (svn rev. 13079) starts on  2Jul2020 at 10:54:53 

     This program is part of the open-source Quantum ESPRESSO suite
     for quantum simulation of materials; please cite
         "P. Giannozzi et al., J. Phys.:Condens. Matter 21 395502 (2009);
          URL http://www.quantum-espresso.org", 
     in publications or presentations arising from this work. More details at
     http://www.quantum-espresso.org/quote

     Parallel version (MPI), running on     1 processors

     reading grid info from file Cu2N.dyn0    
  reading force constants from file Cu2N.dyn1
  Dielectric Tensor not found
  nqs=            1
 q=   0.00000000  0.00000000  0.00000000
  reading force constants from file Cu2N.dyn2
  nqs=            1
 q=   0.00000000  0.00000000 -0.50000000
  reading force constants from file Cu2N.dyn3
  nqs=            1
 q=   0.00000000 -0.50006217  0.00000000
  reading force constants from file Cu2N.dyn4
  nqs=            1
 q=   0.00000000 -0.50006217 -0.50000000
  reading force constants from file Cu2N.dyn5
  nqs=            1
 q=  -0.50000000  0.00000000  0.00000000
  reading force constants from file Cu2N.dyn6
  nqs=            1
 q=  -0.50000000  0.00000000 -0.50000000
  reading force constants from file Cu2N.dyn7
  nqs=            1
 q=  -0.50000000 -0.50006217  0.00000000
  reading force constants from file Cu2N.dyn8
  nqs=            1
 q=  -0.50000000 -0.50006217 -0.50000000

      q-space grid ok, #points =    8

      fft-check success (sum of imaginary terms < 10^-12)

     Q2R          :     0.02s CPU         0.05s WALL


   This run was terminated on:  10:54:53   2Jul2020            

=------------------------------------------------------------------------------=
   JOB DONE.
=------------------------------------------------------------------------------=
