--------------------------------------------------------------------------
WARNING: Linux kernel CMA support was requested via the
btl_vader_single_copy_mechanism MCA variable, but CMA support is
not available due to restrictive ptrace settings.

The vader shared memory BTL will fall back on another single-copy
mechanism if one is available. This may result in lower performance.

  Local host: DESKTOP-L90FV74
--------------------------------------------------------------------------

     Program DOS v.6.0 (svn rev. 13079) starts on 14Jul2020 at 13:50: 1 

     This program is part of the open-source Quantum ESPRESSO suite
     for quantum simulation of materials; please cite
         "P. Giannozzi et al., J. Phys.:Condens. Matter 21 395502 (2009);
          URL http://www.quantum-espresso.org", 
     in publications or presentations arising from this work. More details at
     http://www.quantum-espresso.org/quote

     Parallel version (MPI), running on    12 processors
     R & G space division:  proc/nbgrp/npool/nimage =      12

   Info: using nr1, nr2, nr3 values from input

   Info: using nr1, nr2, nr3 values from input

     IMPORTANT: XC functional enforced from input :
     Exchange-correlation      =  SLA  PW   PBX  PBC ( 1  4  3  4 0 0)
     Any further DFT definition will be discarded
     Please, verify this is what you really want

               file Cu.pbe-dn-kjpaw_psl.1.0.0.UPF: wavefunction(s)  4S 3D renormalized
               file N.pbe-n-kjpaw_psl.1.0.0.UPF: wavefunction(s)  2S renormalized

     Parallelization info
     --------------------
     sticks:   dense  smooth     PW     G-vecs:    dense   smooth      PW
     Min          40      40     12                  640      640     112
     Max          41      41     13                  642      642     115
     Sum         481     481    145                 7689     7689    1357

     Generating pointlists ...
     new r_m :   0.1969 (alat units)  1.3792 (a.u.) for type    1
     new r_m :   0.1969 (alat units)  1.3792 (a.u.) for type    2

     Check: negative/imaginary core charge=   -0.000075    0.000000

     Gaussian broadening (read from file): ngauss,degauss=   0    0.020000


     DOS          :     1.44s CPU         2.00s WALL


   This run was terminated on:  13:50: 3  14Jul2020            

=------------------------------------------------------------------------------=
   JOB DONE.
=------------------------------------------------------------------------------=
