--------------------------------------------------------------------------
WARNING: Linux kernel CMA support was requested via the
btl_vader_single_copy_mechanism MCA variable, but CMA support is
not available due to restrictive ptrace settings.

The vader shared memory BTL will fall back on another single-copy
mechanism if one is available. This may result in lower performance.

  Local host: DESKTOP-L90FV74
--------------------------------------------------------------------------

     Program PWSCF v.6.0 (svn rev. 13079) starts on 14Jul2020 at 13:28:24 

     This program is part of the open-source Quantum ESPRESSO suite
     for quantum simulation of materials; please cite
         "P. Giannozzi et al., J. Phys.:Condens. Matter 21 395502 (2009);
          URL http://www.quantum-espresso.org", 
     in publications or presentations arising from this work. More details at
     http://www.quantum-espresso.org/quote

     Parallel version (MPI), running on    12 processors
     R & G space division:  proc/nbgrp/npool/nimage =      12
     Waiting for input...
     Reading input from standard input

     Current dimensions of program PWSCF are:
     Max number of different atomic species (ntypx) = 10
     Max number of k-points (npk) =  40000
     Max angular momentum in pseudopotentials (lmaxx) =  3

     Atomic positions and unit cell read from directory:
     ./tmp/Cu2N.save/

               file Cu.pbe-dn-kjpaw_psl.1.0.0.UPF: wavefunction(s)  4S 3D renormalized
               file N.pbe-n-kjpaw_psl.1.0.0.UPF: wavefunction(s)  2S renormalized

     Subspace diagonalization in iterative solution of the eigenvalue problem:
     one sub-group per band group will be used
     ELPA distributed-memory algorithm (size of sub-group:  2*  2 procs)


     Parallelization info
     --------------------
     sticks:   dense  smooth     PW     G-vecs:    dense   smooth      PW
     Min          40      40     12                  640      640     112
     Max          41      41     13                  642      642     115
     Sum         481     481    145                 7689     7689    1357



     bravais-lattice index     =            0
     lattice parameter (alat)  =       7.0055  a.u.
     unit-cell volume          =     343.7659 (a.u.)^3
     number of atoms/cell      =            5
     number of atomic types    =            2
     number of electrons       =        49.00
     number of Kohn-Sham states=           30
     kinetic-energy cutoff     =      30.0000  Ry
     charge density cutoff     =     120.0000  Ry
     Exchange-correlation      =  SLA  PW   PBX  PBC ( 1  4  3  4 0 0)

     celldm(1)=   7.005497  celldm(2)=   0.000000  celldm(3)=   0.000000
     celldm(4)=   0.000000  celldm(5)=   0.000000  celldm(6)=   0.000000

     crystal axes: (cart. coord. in units of alat)
               a(1) = (   1.000000   0.000000   0.000000 )  
               a(2) = (   0.000000   0.999876   0.000000 )  
               a(3) = (   0.000000   0.000000   1.000000 )  

     reciprocal axes: (cart. coord. in units 2 pi/alat)
               b(1) = (  1.000000  0.000000  0.000000 )  
               b(2) = (  0.000000  1.000124  0.000000 )  
               b(3) = (  0.000000  0.000000  1.000000 )  


     PseudoPot. # 1 for Cu read from file:
     ../pseudo/Cu.pbe-dn-kjpaw_psl.1.0.0.UPF
     MD5 check sum: d0575d8777d02cc05b6679c1e3a9a036
     Pseudo is Projector augmented-wave + core cor, Zval = 11.0
     Generated using "atomic" code by A. Dal Corso  v.6.3
     Shape of augmentation charge: PSQ
     Using radial grid of 1199 points,  6 beta functions with: 
                l(1) =   0
                l(2) =   0
                l(3) =   1
                l(4) =   1
                l(5) =   2
                l(6) =   2
     Q(r) pseudized with 0 coefficients 


     PseudoPot. # 2 for  N read from file:
     ../pseudo/N.pbe-n-kjpaw_psl.1.0.0.UPF
     MD5 check sum: 57d39628416b425e94b4a4c0ec66cafa
     Pseudo is Projector augmented-wave + core cor, Zval =  5.0
     Generated using "atomic" code by A. Dal Corso  v.6.3
     Shape of augmentation charge: PSQ
     Using radial grid of 1085 points,  4 beta functions with: 
                l(1) =   0
                l(2) =   0
                l(3) =   1
                l(4) =   1
     Q(r) pseudized with 0 coefficients 


     atomic species   valence    mass     pseudopotential
        Cu            11.00    63.54600     Cu( 1.00)
        N              5.00    14.00700      N( 1.00)

     Starting magnetic structure 
     atomic species   magnetization
        Cu           0.000
        N            0.000

      4 Sym. Ops. (no inversion) found



   Cartesian axes

     site n.     atom                  positions (alat units)
         1           Cu  tau(   1) = (   0.0000000   0.0000000   0.0000000  )
         2           Cu  tau(   2) = (   0.5000000   0.4999378   0.0000000  )
         3           Cu  tau(   3) = (   0.0000000   0.4999378   0.4749170  )
         4           Cu  tau(   4) = (   0.5000000   0.0000000   0.4747944  )
         5           N   tau(   5) = (   0.0000000   0.4999378   0.9976365  )

     number of k points=   216  gaussian smearing, width (Ry)=  0.0200

     Number of k-points >= 100: set verbosity='high' to print them.

     Dense  grid:     7689 G-vectors     FFT dimensions: (  25,  25,  25)

     Estimated max dynamical RAM per process >       0.87Mb

     Estimated total allocated dynamical RAM >      10.44Mb
     Generating pointlists ...
     new r_m :   0.1969 (alat units)  1.3792 (a.u.) for type    1
     new r_m :   0.1969 (alat units)  1.3792 (a.u.) for type    2

     Check: negative/imaginary core charge=   -0.000075    0.000000

     The potential is recalculated from file :
     ./tmp/Cu2N.save/charge-density.dat

     Starting wfc are   40 randomized atomic wfcs
     Checking if some PAW data can be deallocated... 

     Band Structure Calculation
     Davidson diagonalization with overlap

     ethr =  2.04E-13,  avg # of iterations = 23.5

     total cpu time spent up to now is      122.3 secs

     End of band structure calculation

     Number of k-points >= 100: set verbosity='high' to print the bands.

     the Fermi energy is    14.4933 ev

     Writing output data file Cu2N.save

     init_run     :      1.34s CPU      1.86s WALL (       1 calls)
     electrons    :     65.14s CPU    119.63s WALL (       1 calls)

     Called by init_run:
     wfcinit      :      0.00s CPU      0.00s WALL (       1 calls)
     potinit      :      0.67s CPU      1.03s WALL (       1 calls)

     Called by electrons:
     c_bands      :     65.14s CPU    119.62s WALL (       1 calls)
     v_of_rho     :      0.00s CPU      0.01s WALL (       1 calls)
     newd         :      0.00s CPU      0.01s WALL (       1 calls)
     PAW_pot      :      0.67s CPU      1.02s WALL (       1 calls)

     Called by c_bands:
     init_us_2    :      0.02s CPU      0.02s WALL (     432 calls)
     cegterg      :     62.66s CPU    113.35s WALL (     786 calls)

     Called by sum_band:

     Called by *egterg:
     h_psi        :     15.64s CPU     36.18s WALL (   11375 calls)
     s_psi        :      1.58s CPU      1.97s WALL (   11375 calls)
     g_psi        :      0.12s CPU      0.05s WALL (   10157 calls)
     cdiaghg      :     35.31s CPU     50.99s WALL (   10589 calls)

     Called by h_psi:
     h_psi:pot    :     15.62s CPU     36.11s WALL (   11375 calls)
     h_psi:calbec :      2.50s CPU      8.56s WALL (   11375 calls)
     vloc_psi     :     11.03s CPU     25.48s WALL (   11375 calls)
     add_vuspsi   :      2.08s CPU      2.03s WALL (   11375 calls)

     General routines
     calbec       :      2.45s CPU      8.53s WALL (   11375 calls)
     fft          :      0.00s CPU      0.02s WALL (      21 calls)
     fftw         :     10.31s CPU     24.46s WALL (  398364 calls)
     davcio       :      0.00s CPU      0.28s WALL (     432 calls)

     Parallel routines
     fft_scatter  :      6.48s CPU     20.09s WALL (  398385 calls)

     PWSCF        :  1m 7.20s CPU     2m 4.40s WALL


   This run was terminated on:  13:30:29  14Jul2020            

=------------------------------------------------------------------------------=
   JOB DONE.
=------------------------------------------------------------------------------=
