--------------------------------------------------------------------------
WARNING: Linux kernel CMA support was requested via the
btl_vader_single_copy_mechanism MCA variable, but CMA support is
not available due to restrictive ptrace settings.

The vader shared memory BTL will fall back on another single-copy
mechanism if one is available. This may result in lower performance.

  Local host: Rijuki
--------------------------------------------------------------------------

     Program PROJWFC v.6.0 (svn rev. 13079) starts on 24Apr2020 at  1:46:46 

     This program is part of the open-source Quantum ESPRESSO suite
     for quantum simulation of materials; please cite
         "P. Giannozzi et al., J. Phys.:Condens. Matter 21 395502 (2009);
          URL http://www.quantum-espresso.org", 
     in publications or presentations arising from this work. More details at
     http://www.quantum-espresso.org/quote

     Parallel version (MPI), running on    15 processors
     R & G space division:  proc/nbgrp/npool/nimage =      15

     Reading data from directory:
     ./tmp/Cu2N.save

   Info: using nr1, nr2, nr3 values from input

   Info: using nr1, nr2, nr3 values from input

     IMPORTANT: XC functional enforced from input :
     Exchange-correlation      =  SLA  PW   PBX  PBC ( 1  4  3  4 0 0)
     Any further DFT definition will be discarded
     Please, verify this is what you really want

               file Cu.pbe-dn-kjpaw_psl.1.0.0.UPF: wavefunction(s)  4S 3D renormalized
               file N.pbe-n-kjpaw_psl.1.0.0.UPF: wavefunction(s)  2S renormalized

     Parallelization info
     --------------------
     sticks:   dense  smooth     PW     G-vecs:    dense   smooth      PW
     Min          32      32      9                  520      520      89
     Max          33      33     10                  523      523      92
     Sum         481     481    145                 7809     7809    1357

     Generating pointlists ...
     new r_m :   0.2062 (alat units)  1.4499 (a.u.) for type    1
     new r_m :   0.2062 (alat units)  1.4499 (a.u.) for type    2

     Check: negative/imaginary core charge=   -0.000075    0.000000

     Gaussian broadening (read from file): ngauss,degauss=   0    0.020000


     Calling pprojwave .... 

  Problem Sizes 
  natomwfc =           40
  nbnd     =           30
  nkstot   =          252
  npwx     =           72
  nkb      =           80


     Atomic states used for projection
     (read from pseudopotential files):

     state #   1: atom   1 (Cu ), wfc  1 (l=0 m= 1)
     state #   2: atom   1 (Cu ), wfc  2 (l=1 m= 1)
     state #   3: atom   1 (Cu ), wfc  2 (l=1 m= 2)
     state #   4: atom   1 (Cu ), wfc  2 (l=1 m= 3)
     state #   5: atom   1 (Cu ), wfc  3 (l=2 m= 1)
     state #   6: atom   1 (Cu ), wfc  3 (l=2 m= 2)
     state #   7: atom   1 (Cu ), wfc  3 (l=2 m= 3)
     state #   8: atom   1 (Cu ), wfc  3 (l=2 m= 4)
     state #   9: atom   1 (Cu ), wfc  3 (l=2 m= 5)
     state #  10: atom   2 (Cu ), wfc  1 (l=0 m= 1)
     state #  11: atom   2 (Cu ), wfc  2 (l=1 m= 1)
     state #  12: atom   2 (Cu ), wfc  2 (l=1 m= 2)
     state #  13: atom   2 (Cu ), wfc  2 (l=1 m= 3)
     state #  14: atom   2 (Cu ), wfc  3 (l=2 m= 1)
     state #  15: atom   2 (Cu ), wfc  3 (l=2 m= 2)
     state #  16: atom   2 (Cu ), wfc  3 (l=2 m= 3)
     state #  17: atom   2 (Cu ), wfc  3 (l=2 m= 4)
     state #  18: atom   2 (Cu ), wfc  3 (l=2 m= 5)
     state #  19: atom   3 (Cu ), wfc  1 (l=0 m= 1)
     state #  20: atom   3 (Cu ), wfc  2 (l=1 m= 1)
     state #  21: atom   3 (Cu ), wfc  2 (l=1 m= 2)
     state #  22: atom   3 (Cu ), wfc  2 (l=1 m= 3)
     state #  23: atom   3 (Cu ), wfc  3 (l=2 m= 1)
     state #  24: atom   3 (Cu ), wfc  3 (l=2 m= 2)
     state #  25: atom   3 (Cu ), wfc  3 (l=2 m= 3)
     state #  26: atom   3 (Cu ), wfc  3 (l=2 m= 4)
     state #  27: atom   3 (Cu ), wfc  3 (l=2 m= 5)
     state #  28: atom   4 (Cu ), wfc  1 (l=0 m= 1)
     state #  29: atom   4 (Cu ), wfc  2 (l=1 m= 1)
     state #  30: atom   4 (Cu ), wfc  2 (l=1 m= 2)
     state #  31: atom   4 (Cu ), wfc  2 (l=1 m= 3)
     state #  32: atom   4 (Cu ), wfc  3 (l=2 m= 1)
     state #  33: atom   4 (Cu ), wfc  3 (l=2 m= 2)
     state #  34: atom   4 (Cu ), wfc  3 (l=2 m= 3)
     state #  35: atom   4 (Cu ), wfc  3 (l=2 m= 4)
     state #  36: atom   4 (Cu ), wfc  3 (l=2 m= 5)
     state #  37: atom   5 (N  ), wfc  1 (l=0 m= 1)
     state #  38: atom   5 (N  ), wfc  2 (l=1 m= 1)
     state #  39: atom   5 (N  ), wfc  2 (l=1 m= 2)
     state #  40: atom   5 (N  ), wfc  2 (l=1 m= 3)

 k =   0.0416666667  0.0416666667  0.0416666667
     e =    -4.43632 eV
     psi = 0.579*[#  37]+0.085*[#   1]+0.085*[#  10]+0.085*[#  19]+0.039*[#  23]+
          +0.029*[#   8]+0.029*[#  17]+0.010*[#   5]+0.010*[#  14]+0.009*[#  28]+
          +0.006*[#   4]+0.006*[#  12]+0.006*[#  20]+0.002*[#   2]+0.002*[#   3]+
          +0.002*[#  11]+0.002*[#  13]+0.002*[#  21]+0.002*[#  22]+0.002*[#  29]+
          +0.002*[#  30]+0.002*[#  31]+
    |psi|^2 = 0.998
     e =     5.79468 eV
     psi = 0.254*[#  28]+0.103*[#   1]+0.103*[#  10]+0.103*[#  19]+0.095*[#  23]+
          +0.071*[#   8]+0.071*[#  17]+0.065*[#  37]+0.024*[#   5]+0.024*[#  14]+
          +0.009*[#   2]+0.009*[#   3]+0.009*[#  11]+0.009*[#  13]+0.009*[#  21]+
          +0.009*[#  22]+0.006*[#  29]+0.006*[#  30]+0.006*[#  31]+0.004*[#  38]+
          +0.004*[#  39]+0.004*[#  40]+0.002*[#   4]+0.002*[#  12]+0.002*[#  20]+
    |psi|^2 = 0.999
     e =     7.73288 eV
     psi = 0.494*[#  40]+0.123*[#  38]+0.123*[#  39]+0.059*[#   4]+0.027*[#  13]+
          +0.027*[#  22]+0.015*[#  12]+0.015*[#  20]+0.010*[#  31]+0.010*[#  18]+
          +0.010*[#  25]+0.008*[#  15]+0.008*[#  24]+0.007*[#   8]+0.007*[#   2]+
          +0.007*[#   3]+0.007*[#  11]+0.007*[#  21]+0.006*[#   1]+0.006*[#  17]+
          +0.005*[#  26]+0.003*[#  29]+0.003*[#  30]+0.002*[#  35]+0.002*[#   5]+
          +0.002*[#  23]+0.002*[#  33]+0.002*[#  10]+0.002*[#  19]+0.001*[#  14]+
    |psi|^2 = 0.999
     e =     7.73294 eV
     psi = 0.370*[#  38]+0.370*[#  39]+0.044*[#  12]+0.044*[#  20]+0.020*[#  11]+
          +0.020*[#  21]+0.020*[#   2]+0.020*[#   3]+0.012*[#   7]+0.012*[#   9]+
          +0.008*[#  29]+0.008*[#  30]+0.007*[#  23]+0.006*[#  14]+0.005*[#  10]+
          +0.005*[#  19]+0.005*[#   5]+0.004*[#  15]+0.004*[#  24]+0.003*[#  17]+
          +0.002*[#  32]+0.002*[#  18]+0.002*[#  25]+0.002*[#   8]+0.002*[#  26]+
          +0.001*[#  34]+0.001*[#  36]+
    |psi|^2 = 0.999
     e =     7.76213 eV
     psi = 0.232*[#  38]+0.232*[#  39]+0.231*[#  40]+0.031*[#  12]+0.031*[#  20]+
          +0.031*[#   4]+0.015*[#   7]+0.015*[#   9]+0.015*[#  15]+0.015*[#  18]+
          +0.015*[#  24]+0.015*[#  25]+0.011*[#   2]+0.011*[#   3]+0.011*[#  11]+
          +0.011*[#  13]+0.011*[#  21]+0.011*[#  22]+0.008*[#  23]+0.006*[#   8]+
          +0.006*[#  17]+0.004*[#  29]+0.004*[#  30]+0.004*[#  31]+0.004*[#  33]+
          +0.004*[#  34]+0.004*[#  36]+0.002*[#   5]+0.002*[#  14]+0.002*[#   6]+
          +0.002*[#  16]+0.002*[#  27]+
    |psi|^2 = 0.999
     e =     8.55538 eV
     psi = 0.173*[#  15]+0.173*[#  24]+0.099*[#  26]+0.091*[#  14]+0.067*[#   6]+
          +0.054*[#  35]+0.045*[#   7]+0.045*[#   9]+0.041*[#  18]+0.041*[#  25]+
          +0.037*[#  33]+0.018*[#  32]+0.016*[#  16]+0.016*[#  27]+0.014*[#   1]+
          +0.012*[#  17]+0.010*[#   8]+0.009*[#  34]+0.009*[#  36]+0.004*[#  10]+
          +0.004*[#  19]+0.003*[#   5]+0.003*[#  23]+0.003*[#  40]+0.002*[#  11]+
          +0.002*[#  21]+0.002*[#  31]+
    |psi|^2 = 0.996
     e =     8.55568 eV
     psi = 0.131*[#  18]+0.131*[#  25]+0.126*[#   7]+0.126*[#   9]+0.100*[#   5]+
          +0.055*[#  32]+0.050*[#  16]+0.050*[#  27]+0.033*[#   8]+0.033*[#  26]+
          +0.032*[#  17]+0.027*[#  34]+0.027*[#  36]+0.018*[#  35]+0.012*[#  14]+
          +0.011*[#  10]+0.011*[#  19]+0.010*[#  23]+0.002*[#  38]+0.002*[#  39]+
          +0.001*[#   2]+0.001*[#   3]+0.001*[#  13]+0.001*[#  22]+0.001*[#  29]+
          +0.001*[#  30]+
    |psi|^2 = 0.996
     e =     8.58670 eV
     psi = 0.207*[#  26]+0.201*[#  14]+0.113*[#  35]+0.076*[#  15]+0.076*[#  24]+
          +0.038*[#  32]+0.036*[#   8]+0.031*[#   6]+0.025*[#   1]+0.022*[#   7]+
          +0.022*[#   9]+0.018*[#  17]+0.016*[#  33]+0.015*[#  18]+0.015*[#  25]+
          +0.015*[#  40]+0.012*[#   5]+0.012*[#  23]+0.007*[#  16]+0.007*[#  27]+
          +0.006*[#  10]+0.006*[#  19]+0.004*[#  34]+0.004*[#  36]+0.004*[#  38]+
          +0.004*[#  39]+0.002*[#   4]+
    |psi|^2 = 0.997
     e =     8.58694 eV
     psi = 0.206*[#   5]+0.113*[#  32]+0.087*[#  17]+0.069*[#  26]+0.069*[#   8]+
          +0.060*[#  18]+0.060*[#  25]+0.053*[#   7]+0.053*[#   9]+0.038*[#  35]+
          +0.036*[#  23]+0.023*[#  16]+0.023*[#  27]+0.019*[#  10]+0.019*[#  19]+
          +0.018*[#  14]+0.012*[#  34]+0.012*[#  36]+0.011*[#  38]+0.011*[#  39]+
          +0.001*[#  12]+0.001*[#  20]+
    |psi|^2 = 0.997
     e =     8.63223 eV
     psi = 0.112*[#  18]+0.112*[#  25]+0.112*[#   7]+0.112*[#   9]+0.110*[#  15]+
          +0.110*[#  24]+0.051*[#  16]+0.051*[#  27]+0.050*[#   6]+0.025*[#  40]+
          +0.025*[#  38]+0.025*[#  39]+0.023*[#  34]+0.023*[#  36]+0.022*[#  33]+
          +0.003*[#   4]+0.002*[#  12]+0.002*[#  20]+0.003*[#  29]+0.003*[#  30]+
          +0.003*[#  31]+0.002*[#   2]+0.002*[#   3]+0.002*[#  11]+0.002*[#  13]+
          +0.002*[#  21]+0.002*[#  22]+
    |psi|^2 = 0.995
     e =    10.01135 eV
     psi = 0.189*[#  16]+0.189*[#  27]+0.187*[#   6]+0.067*[#  34]+0.067*[#  36]+
          +0.066*[#  33]+0.039*[#  18]+0.039*[#  25]+0.039*[#   7]+0.039*[#   9]+
          +0.038*[#  15]+0.038*[#  24]+
    |psi|^2 = 0.999
     e =    10.03029 eV
     psi = 0.284*[#  16]+0.284*[#  27]+0.099*[#  34]+0.099*[#  36]+0.058*[#  18]+
          +0.058*[#  25]+0.055*[#   7]+0.055*[#   9]+0.004*[#   6]+0.001*[#  33]+
    |psi|^2 = 0.999
     e =    10.03040 eV
     psi = 0.379*[#   6]+0.132*[#  33]+0.097*[#  16]+0.097*[#  27]+0.075*[#  15]+
          +0.075*[#  24]+0.034*[#  34]+0.034*[#  36]+0.021*[#   7]+0.021*[#   9]+
          +0.018*[#  18]+0.018*[#  25]+
    |psi|^2 = 0.999
     e =    10.24169 eV
     psi = 0.413*[#   8]+0.205*[#  17]+0.138*[#   5]+0.138*[#  23]+0.069*[#  26]+
          +0.008*[#  40]+0.005*[#  35]+0.003*[#   4]+0.002*[#  38]+0.002*[#  39]+
          +0.002*[#  14]+0.002*[#   7]+0.002*[#   9]+0.002*[#  32]+0.001*[#  13]+
          +0.001*[#  22]+0.001*[#  18]+0.001*[#  25]+
    |psi|^2 = 0.999
     e =    10.24288 eV
     psi = 0.413*[#  23]+0.231*[#  17]+0.205*[#  14]+0.069*[#   5]+0.023*[#   8]+
          +0.023*[#  26]+0.006*[#  38]+0.006*[#  39]+0.005*[#  32]+0.002*[#  12]+
          +0.002*[#  20]+0.002*[#  15]+0.002*[#  24]+0.002*[#  35]+
    |psi|^2 = 0.999
     e =    11.01646 eV
     psi = 0.172*[#  15]+0.172*[#  24]+0.162*[#   7]+0.162*[#   9]+0.162*[#  18]+
          +0.162*[#  25]+0.002*[#  26]+0.002*[#   5]+0.001*[#  14]+
    |psi|^2 = 1.000
     e =    11.05383 eV
     psi = 0.320*[#  15]+0.320*[#  24]+0.088*[#   7]+0.088*[#   9]+0.083*[#  18]+
          +0.083*[#  25]+0.006*[#  38]+0.006*[#  39]+
    |psi|^2 = 1.000
     e =    11.05455 eV
     psi = 0.247*[#  18]+0.247*[#  25]+0.243*[#   7]+0.243*[#   9]+0.008*[#  40]+
          +0.002*[#  38]+0.002*[#  39]+
    |psi|^2 = 1.000
     e =    11.15521 eV
     psi = 0.331*[#  26]+0.248*[#   5]+0.248*[#  14]+0.083*[#   8]+0.083*[#  17]+
          +0.001*[#   7]+0.001*[#   9]+0.001*[#  15]+0.001*[#  18]+0.001*[#  24]+
          +0.001*[#  25]+
    |psi|^2 = 1.000
     e =    11.59308 eV
     psi = 0.546*[#  35]+0.182*[#  32]+0.105*[#  14]+0.100*[#  26]+0.031*[#   8]+
          +0.010*[#   5]+0.010*[#  23]+0.005*[#  17]+0.003*[#   1]+
    |psi|^2 = 1.000
     e =    11.59340 eV
     psi = 0.546*[#  32]+0.182*[#  35]+0.100*[#   5]+0.059*[#  17]+0.033*[#   8]+
          +0.033*[#  26]+0.031*[#  23]+0.005*[#  14]+0.002*[#  10]+0.002*[#  19]+
    |psi|^2 = 1.000
     e =    11.85598 eV
     psi = 0.242*[#  34]+0.242*[#  36]+0.236*[#  33]+0.092*[#  16]+0.092*[#  27]+
          +0.090*[#   6]+0.001*[#  38]+0.001*[#  39]+0.001*[#  40]+
    |psi|^2 = 1.000
     e =    11.87136 eV
     psi = 0.356*[#  34]+0.356*[#  36]+0.140*[#  16]+0.140*[#  27]+0.002*[#  33]+
    |psi|^2 = 1.000
     e =    11.87150 eV
     psi = 0.479*[#  33]+0.188*[#   6]+0.118*[#  34]+0.118*[#  36]+0.046*[#  16]+
          +0.046*[#  27]+
    |psi|^2 = 1.000
     e =    13.83510 eV
     psi = 0.244*[#  37]+0.189*[#  23]+0.142*[#  17]+0.142*[#   8]+0.135*[#  28]+
          +0.047*[#   5]+0.047*[#  14]+0.006*[#   1]+0.006*[#  10]+0.006*[#  19]+
          +0.005*[#  38]+0.005*[#  39]+0.005*[#  40]+0.002*[#  29]+0.002*[#  30]+
          +0.002*[#  31]+
    |psi|^2 = 0.991
     e =    17.60619 eV
     psi = 0.242*[#  31]+0.112*[#  13]+0.112*[#  22]+0.085*[#  40]+0.082*[#   1]+
          +0.060*[#  29]+0.060*[#  30]+0.035*[#  11]+0.035*[#  21]+0.022*[#   2]+
          +0.022*[#   3]+0.021*[#  38]+0.021*[#  39]+0.021*[#  10]+0.021*[#  19]+
          +0.013*[#   4]+0.005*[#  35]+0.004*[#  14]+0.004*[#  26]+0.003*[#  12]+
          +0.003*[#  20]+0.002*[#  32]+0.001*[#   8]+
    |psi|^2 = 0.989
     e =    17.60631 eV
     psi = 0.181*[#  29]+0.181*[#  30]+0.090*[#   2]+0.090*[#   3]+0.077*[#  11]+
          +0.077*[#  21]+0.064*[#  38]+0.064*[#  39]+0.062*[#  10]+0.062*[#  19]+
          +0.010*[#  12]+0.010*[#  20]+0.005*[#  32]+0.004*[#   5]+0.002*[#  17]+
          +0.002*[#  35]+0.001*[#   8]+0.001*[#  26]+0.001*[#  23]+
    |psi|^2 = 0.989
     e =    17.69183 eV
     psi = 0.136*[#  29]+0.136*[#  30]+0.136*[#  31]+0.064*[#   2]+0.064*[#   3]+
          +0.064*[#  11]+0.064*[#  21]+0.064*[#  13]+0.064*[#  22]+0.042*[#  38]+
          +0.042*[#  39]+0.041*[#  40]+0.015*[#  28]+0.011*[#   4]+0.011*[#  12]+
          +0.011*[#  20]+0.007*[#  37]+0.004*[#   1]+0.004*[#  10]+0.004*[#  19]+
    |psi|^2 = 0.990
     e =    19.34240 eV
     psi = 0.497*[#   1]+0.125*[#  10]+0.125*[#  19]+0.034*[#  31]+0.023*[#  13]+
          +0.023*[#  22]+0.022*[#  35]+0.014*[#  26]+0.012*[#   4]+0.012*[#   2]+
          +0.012*[#   3]+0.011*[#  14]+0.009*[#  29]+0.009*[#  30]+0.007*[#  32]+
          +0.006*[#  40]+0.004*[#  17]+0.003*[#  12]+0.003*[#  20]+0.002*[#  11]+
          +0.002*[#  21]+0.002*[#  38]+0.002*[#  39]+
    |psi|^2 = 0.958
     e =    19.34244 eV
     psi = 0.373*[#  10]+0.373*[#  19]+0.026*[#  29]+0.026*[#  30]+0.023*[#  11]+
          +0.023*[#  21]+0.022*[#  32]+0.014*[#   5]+0.013*[#   2]+0.013*[#   3]+
          +0.009*[#  12]+0.009*[#  20]+0.007*[#  35]+0.005*[#   8]+0.005*[#  26]+
          +0.005*[#  38]+0.005*[#  39]+0.004*[#  14]+0.001*[#  13]+0.001*[#  22]+
          +0.001*[#   1]+0.001*[#  17]+
    |psi|^2 = 0.958

 k =   0.0416666667  0.0416666667  0.1250000000
     e =    -4.37664 eV
     psi = 0.573*[#  37]+0.070*[#   1]+0.066*[#  10]+0.066*[#  19]+0.037*[#  23]+
          +0.030*[#   8]+0.028*[#  17]+0.026*[#  12]+0.026*[#  20]+0.010*[#   5]+
          +0.009*[#  14]+0.007*[#  29]+0.007*[#  30]+0.007*[#   2]+0.007*[#   3]+
          +0.007*[#  11]+0.007*[#  21]+0.005*[#   4]+0.004*[#  28]+0.001*[#  13]+
          +0.001*[#  22]+0.001*[#  31]+
    |psi|^2 = 0.999
     e =     5.81783 eV
     psi = 0.204*[#  28]+0.079*[#  10]+0.079*[#  19]+0.074*[#  23]+0.068*[#  37]+
          +0.065*[#   8]+0.063*[#   1]+0.055*[#  17]+0.038*[#  11]+0.038*[#  21]+
          +0.038*[#   2]+0.038*[#   3]+0.026*[#  38]+0.026*[#  39]+0.022*[#   5]+
          +0.019*[#  14]+0.019*[#  29]+0.019*[#  30]+0.007*[#  13]+0.007*[#  22]+
          +0.005*[#  31]+0.003*[#  12]+0.003*[#  20]+0.003*[#  40]+
    |psi|^2 = 0.999
     e =     7.32338 eV
     psi = 0.304*[#  38]+0.304*[#  39]+0.060*[#  23]+0.048*[#  17]+0.039*[#  12]+
          +0.039*[#  20]+0.019*[#  40]+0.017*[#  14]+0.016*[#   1]+0.014*[#  29]+
          +0.014*[#  30]+0.013*[#  10]+0.013*[#  19]+0.012*[#   2]+0.012*[#   3]+
          +0.012*[#  11]+0.012*[#  21]+0.008*[#   5]+0.005*[#  26]+0.004*[#  32]+
          +0.004*[#   8]+0.004*[#   7]+0.004*[#   9]+0.004*[#  15]+0.004*[#  24]+
          +0.004*[#  28]+0.003*[#  35]+0.002*[#  13]+0.002*[#  22]+0.001*[#   4]+
    |psi|^2 = 0.999
     e =     7.56035 eV
     psi = 0.329*[#  40]+0.164*[#  38]+0.164*[#  39]+0.040*[#   4]+0.034*[#  15]+
          +0.034*[#  24]+0.032*[#  18]+0.032*[#  25]+0.020*[#  12]+0.020*[#  20]+
          +0.016*[#  13]+0.016*[#  22]+0.010*[#   2]+0.010*[#   3]+0.007*[#  33]+
          +0.006*[#  11]+0.006*[#  21]+0.005*[#   7]+0.005*[#   9]+0.005*[#   8]+
          +0.004*[#  31]+0.004*[#   1]+0.004*[#  17]+0.004*[#  34]+0.004*[#  36]+
          +0.003*[#  23]+0.002*[#  29]+0.002*[#  30]+0.002*[#   5]+0.002*[#   6]+
          +0.002*[#  26]+0.002*[#  10]+0.002*[#  19]+0.001*[#  14]+0.001*[#  35]+
    |psi|^2 = 0.999
     e =     7.59930 eV
     psi = 0.301*[#  40]+0.161*[#  38]+0.161*[#  39]+0.041*[#   4]+0.037*[#  18]+
          +0.037*[#  25]+0.037*[#  15]+0.037*[#  24]+0.023*[#  12]+0.023*[#  20]+
          +0.013*[#  13]+0.013*[#  22]+0.012*[#   7]+0.012*[#   9]+0.009*[#  23]+
          +0.008*[#   8]+0.008*[#   2]+0.008*[#   3]+0.008*[#  33]+0.007*[#  17]+
          +0.005*[#  34]+0.005*[#  36]+0.005*[#  11]+0.005*[#  21]+0.004*[#  31]+
          +0.003*[#   5]+0.003*[#  14]+0.002*[#   6]+0.002*[#  29]+0.002*[#  30]+
          +0.002*[#  16]+0.002*[#  27]+0.001*[#  10]+0.001*[#  19]+
    |psi|^2 = 0.999
     e =     8.58187 eV
     psi = 0.170*[#  18]+0.170*[#  25]+0.170*[#   7]+0.170*[#   9]+0.060*[#  16]+
          +0.060*[#  27]+0.034*[#  34]+0.034*[#  36]+0.025*[#  15]+0.025*[#  24]+
          +0.013*[#   5]+0.009*[#   6]+0.009*[#  26]+0.008*[#  32]+0.006*[#  33]+
          +0.005*[#  14]+0.005*[#  17]+0.005*[#   8]+0.005*[#  35]+0.002*[#  23]+
          +0.002*[#  10]+0.002*[#  19]+0.001*[#  13]+0.001*[#  22]+
    |psi|^2 = 0.996
     e =     8.62012 eV
     psi = 0.207*[#   5]+0.136*[#  26]+0.119*[#  32]+0.108*[#  17]+0.086*[#  14]+
          +0.082*[#   8]+0.072*[#  35]+0.059*[#  23]+0.020*[#  10]+0.020*[#  19]+
          +0.011*[#  18]+0.011*[#  25]+0.010*[#   7]+0.010*[#   9]+0.009*[#   1]+
          +0.007*[#  38]+0.007*[#  39]+0.004*[#  16]+0.004*[#  27]+0.002*[#  29]+
          +0.002*[#  30]+0.002*[#  34]+0.002*[#  36]+0.001*[#  40]+
    |psi|^2 = 0.998
     e =     8.64248 eV
     psi = 0.242*[#  26]+0.209*[#  14]+0.132*[#  35]+0.080*[#  32]+0.077*[#   5]+
          +0.050*[#  17]+0.048*[#   8]+0.026*[#   1]+0.017*[#  23]+0.014*[#  15]+
          +0.014*[#  24]+0.013*[#  10]+0.013*[#  19]+0.008*[#   7]+0.008*[#   9]+
          +0.006*[#   6]+0.006*[#  18]+0.006*[#  25]+0.003*[#  11]+0.003*[#  21]+
          +0.003*[#  16]+0.003*[#  27]+0.003*[#   2]+0.003*[#   3]+0.003*[#  33]+
          +0.001*[#  31]+0.001*[#  34]+0.001*[#  36]+
    |psi|^2 = 0.999
     e =     8.73749 eV
     psi = 0.148*[#  15]+0.148*[#  24]+0.092*[#   7]+0.092*[#   9]+0.077*[#   6]+
          +0.054*[#  18]+0.054*[#  25]+0.039*[#  40]+0.038*[#  16]+0.038*[#  27]+
          +0.030*[#  33]+0.020*[#  38]+0.020*[#  39]+0.018*[#  14]+0.017*[#  26]+
          +0.015*[#  34]+0.015*[#  36]+0.010*[#   8]+0.010*[#  35]+0.008*[#   5]+
          +0.006*[#  23]+0.006*[#  32]+0.005*[#  17]+0.004*[#  13]+0.004*[#  22]+
          +0.004*[#  31]+0.004*[#  11]+0.004*[#  21]+0.004*[#   4]+0.002*[#  29]+
          +0.002*[#  30]+0.002*[#  12]+0.002*[#  20]+
    |psi|^2 = 0.996
     e =     8.78640 eV
     psi = 0.128*[#  15]+0.128*[#  24]+0.102*[#   7]+0.102*[#   9]+0.077*[#   6]+
          +0.066*[#  18]+0.066*[#  25]+0.051*[#  16]+0.051*[#  27]+0.050*[#  40]+
          +0.030*[#  38]+0.030*[#  39]+0.024*[#  33]+0.015*[#  34]+0.015*[#  36]+
          +0.007*[#  31]+0.005*[#  13]+0.005*[#  22]+0.005*[#   4]+0.005*[#  11]+
          +0.005*[#  21]+0.004*[#  29]+0.004*[#  30]+0.004*[#  23]+0.003*[#  12]+
          +0.003*[#  20]+0.003*[#  17]+0.002*[#   2]+0.002*[#   3]+0.001*[#  14]+
          +0.001*[#   8]+
    |psi|^2 = 0.996
     e =     9.97836 eV
     psi = 0.271*[#  16]+0.271*[#  27]+0.098*[#  34]+0.098*[#  36]+0.054*[#   7]+
          +0.054*[#   9]+0.051*[#  18]+0.051*[#  25]+0.026*[#   6]+0.009*[#  33]+
          +0.007*[#  15]+0.007*[#  24]+
    |psi|^2 = 0.999
     e =    10.06849 eV
     psi = 0.237*[#   6]+0.162*[#  16]+0.162*[#  27]+0.081*[#  33]+0.055*[#  34]+
          +0.055*[#  36]+0.052*[#  15]+0.052*[#  24]+0.038*[#   7]+0.038*[#   9]+
          +0.031*[#  18]+0.031*[#  25]+0.001*[#  40]+
    |psi|^2 = 0.999
     e =    10.07011 eV
     psi = 0.295*[#   6]+0.133*[#  16]+0.133*[#  27]+0.100*[#  33]+0.064*[#  15]+
          +0.064*[#  24]+0.045*[#  34]+0.045*[#  36]+0.034*[#   7]+0.034*[#   9]+
          +0.024*[#  18]+0.024*[#  25]+0.001*[#  40]+
    |psi|^2 = 0.999
     e =    10.23690 eV
     psi = 0.318*[#   8]+0.208*[#  17]+0.207*[#  23]+0.119*[#   5]+0.054*[#  26]+
          +0.053*[#  14]+0.004*[#  40]+0.004*[#  15]+0.004*[#  24]+0.003*[#   7]+
          +0.003*[#   9]+0.003*[#  35]+0.002*[#  38]+0.002*[#  39]+0.002*[#   4]+
          +0.002*[#  18]+0.002*[#  25]+0.002*[#  32]+
    |psi|^2 = 0.999
     e =    10.37701 eV
     psi = 0.271*[#  23]+0.163*[#  17]+0.157*[#  14]+0.133*[#   8]+0.110*[#   5]+
          +0.049*[#  26]+0.015*[#  38]+0.015*[#  39]+0.009*[#  15]+0.009*[#  24]+
          +0.007*[#  12]+0.007*[#  20]+0.006*[#  32]+0.005*[#  18]+0.005*[#  25]+
          +0.004*[#   2]+0.004*[#   3]+0.004*[#  11]+0.004*[#  21]+0.004*[#   7]+
          +0.004*[#   9]+0.004*[#  35]+0.003*[#  29]+0.003*[#  30]+
    |psi|^2 = 0.999
     e =    10.99729 eV
     psi = 0.200*[#  18]+0.200*[#  25]+0.195*[#   7]+0.195*[#   9]+0.086*[#  15]+
          +0.086*[#  24]+0.011*[#  26]+0.010*[#   5]+0.008*[#  14]+0.003*[#   8]+
          +0.003*[#  17]+
    |psi|^2 = 1.000
     e =    11.09755 eV
     psi = 0.149*[#  26]+0.139*[#   5]+0.106*[#  14]+0.097*[#  18]+0.097*[#  25]+
          +0.089*[#   7]+0.089*[#   9]+0.058*[#  15]+0.058*[#  24]+0.047*[#   8]+
          +0.044*[#  17]+0.009*[#  40]+0.005*[#  38]+0.005*[#  39]+0.002*[#  35]+
          +0.001*[#  32]+
    |psi|^2 = 1.000
     e =    11.11053 eV
     psi = 0.227*[#  15]+0.227*[#  24]+0.126*[#  18]+0.126*[#  25]+0.103*[#   7]+
          +0.103*[#   9]+0.017*[#  40]+0.012*[#  38]+0.012*[#  39]+0.007*[#  14]+
          +0.006*[#  32]+0.005*[#   5]+0.005*[#  26]+0.004*[#  23]+0.004*[#  35]+
          +0.003*[#   8]+0.002*[#  17]+0.001*[#   4]+0.001*[#  12]+0.001*[#  20]+
    |psi|^2 = 1.000
     e =    11.13981 eV
     psi = 0.166*[#  26]+0.131*[#  14]+0.115*[#   5]+0.094*[#  15]+0.094*[#  24]+
          +0.080*[#  18]+0.080*[#  25]+0.068*[#   7]+0.068*[#   9]+0.040*[#   8]+
          +0.036*[#  17]+0.011*[#  40]+0.005*[#  38]+0.005*[#  39]+
    |psi|^2 = 1.000
     e =    11.57052 eV
     psi = 0.443*[#  35]+0.264*[#  32]+0.089*[#  26]+0.081*[#  14]+0.026*[#   8]+
          +0.026*[#   5]+0.020*[#  17]+0.013*[#  23]+0.011*[#  33]+0.005*[#  34]+
          +0.005*[#  36]+0.003*[#   6]+0.002*[#   1]+0.001*[#  16]+0.001*[#  27]+
    |psi|^2 = 1.000
     e =    11.60182 eV
     psi = 0.454*[#  32]+0.270*[#  35]+0.061*[#   5]+0.051*[#  17]+0.037*[#  26]+
          +0.034*[#  23]+0.032*[#   8]+0.020*[#  14]+0.005*[#  33]+0.003*[#  38]+
          +0.003*[#  39]+0.003*[#  34]+0.003*[#  36]+0.002*[#  15]+0.002*[#  24]+
          +0.001*[#   7]+0.001*[#   9]+0.001*[#   6]+0.001*[#  40]+
    |psi|^2 = 1.000
     e =    11.77642 eV
     psi = 0.342*[#  33]+0.188*[#  34]+0.188*[#  36]+0.122*[#   6]+0.066*[#  16]+
          +0.066*[#  27]+0.004*[#  32]+0.004*[#  40]+0.003*[#  38]+0.003*[#  39]+
          +0.003*[#  35]+0.001*[#  17]+
    |psi|^2 = 0.999
     e =    11.79553 eV
     psi = 0.353*[#  33]+0.173*[#  34]+0.173*[#  36]+0.129*[#   6]+0.064*[#  16]+
          +0.064*[#  27]+0.011*[#  35]+0.007*[#  32]+0.005*[#  40]+0.003*[#  38]+
          +0.003*[#  39]+0.002*[#   8]+0.002*[#  14]+0.002*[#  26]+0.002*[#  23]+
          +0.001*[#   5]+0.001*[#  17]+
    |psi|^2 = 1.000
     e =    11.86713 eV
     psi = 0.350*[#  34]+0.350*[#  36]+0.138*[#  16]+0.138*[#  27]+0.012*[#  33]+
          +0.005*[#   6]+0.001*[#  32]+
    |psi|^2 = 1.000
     e =    13.98199 eV
     psi = 0.230*[#  37]+0.188*[#  23]+0.143*[#  17]+0.124*[#   8]+0.123*[#  28]+
          +0.045*[#  14]+0.041*[#   5]+0.023*[#  38]+0.023*[#  39]+0.008*[#  29]+
          +0.008*[#  30]+0.005*[#   1]+0.005*[#  40]+0.003*[#  10]+0.003*[#  19]+
          +0.003*[#  12]+0.003*[#  20]+0.002*[#  11]+0.002*[#  21]+0.002*[#   2]+
          +0.002*[#   3]+0.001*[#  31]+
    |psi|^2 = 0.991
     e =    16.81089 eV
     psi = 0.155*[#  29]+0.155*[#  30]+0.073*[#  38]+0.073*[#  39]+0.068*[#  10]+
          +0.068*[#  19]+0.065*[#   1]+0.060*[#   2]+0.060*[#   3]+0.060*[#  11]+
          +0.060*[#  21]+0.025*[#  28]+0.013*[#  37]+0.008*[#  17]+0.008*[#   5]+
          +0.008*[#  32]+0.006*[#  23]+0.005*[#   8]+0.005*[#  12]+0.005*[#  20]+
          +0.005*[#  26]+0.005*[#  35]+0.002*[#  14]+
    |psi|^2 = 0.991
     e =    17.70792 eV
     psi = 0.179*[#  31]+0.089*[#  29]+0.089*[#  30]+0.083*[#  13]+0.083*[#  22]+
          +0.063*[#   1]+0.058*[#  40]+0.051*[#  11]+0.051*[#  21]+0.036*[#   2]+
          +0.036*[#   3]+0.032*[#  10]+0.032*[#  19]+0.029*[#  38]+0.029*[#  39]+
          +0.009*[#   4]+0.005*[#  12]+0.005*[#  20]+0.005*[#  35]+0.004*[#  26]+
          +0.003*[#  14]+0.003*[#  32]+0.003*[#   6]+0.001*[#   5]+0.001*[#  16]+
          +0.001*[#  27]+0.001*[#   8]+
    |psi|^2 = 0.988
     e =    17.81234 eV
     psi = 0.201*[#  31]+0.101*[#  29]+0.101*[#  30]+0.094*[#  13]+0.094*[#  22]+
          +0.058*[#  40]+0.049*[#  11]+0.049*[#  21]+0.045*[#   2]+0.045*[#   3]+
          +0.029*[#  38]+0.029*[#  39]+0.015*[#  10]+0.015*[#  19]+0.014*[#   4]+
          +0.011*[#  28]+0.008*[#  12]+0.008*[#  20]+0.006*[#  37]+0.003*[#   6]+
          +0.002*[#  16]+0.002*[#  27]+0.001*[#  33]+
    |psi|^2 = 0.989
     e =    19.41375 eV
     psi = 0.366*[#   1]+0.183*[#  10]+0.183*[#  19]+0.030*[#  31]+0.018*[#  13]+
          +0.018*[#  22]+0.018*[#  35]+0.015*[#   2]+0.015*[#   3]+0.015*[#  29]+
          +0.015*[#  30]+0.014*[#  11]+0.014*[#  21]+0.012*[#  26]+0.011*[#  32]+
          +0.009*[#  14]+0.008*[#   4]+0.004*[#  40]+0.004*[#  12]+0.004*[#  20]+
          +0.004*[#   5]+0.003*[#  17]+0.002*[#  38]+0.002*[#  39]+0.001*[#   8]+
    |psi|^2 = 0.968
     e =    20.27833 eV
     psi = 0.283*[#  10]+0.283*[#  19]+0.077*[#   1]+0.033*[#  29]+0.033*[#  30]+
          +0.029*[#  11]+0.029*[#  21]+0.027*[#  12]+0.027*[#  20]+0.026*[#   2]+
          +0.026*[#   3]+0.012*[#  32]+0.010*[#  28]+0.007*[#  35]+0.007*[#   5]+
          +0.005*[#  37]+0.005*[#  13]+0.005*[#  22]+0.005*[#  31]+0.005*[#  26]+
          +0.004*[#  14]+0.004*[#  38]+0.004*[#  39]+0.003*[#   4]+0.003*[#   8]+
          +0.001*[#  40]+
    |psi|^2 = 0.956

 k =   0.0416666667  0.0416666667  0.2083333333
     e =    -4.26955 eV
     psi = 0.568*[#  37]+0.055*[#   1]+0.053*[#  12]+0.053*[#  20]+0.046*[#  10]+
          +0.046*[#  19]+0.034*[#  23]+0.030*[#   8]+0.025*[#  17]+0.014*[#  29]+
          +0.014*[#  30]+0.010*[#   5]+0.009*[#   2]+0.009*[#   3]+0.009*[#  14]+
          +0.008*[#  11]+0.008*[#  21]+0.004*[#   4]+
    |psi|^2 = 0.999
     e =     5.71040 eV
     psi = 0.127*[#  28]+0.106*[#  38]+0.106*[#  39]+0.074*[#  11]+0.074*[#  21]+
          +0.074*[#   2]+0.074*[#   3]+0.058*[#  10]+0.058*[#  19]+0.058*[#  37]+
          +0.044*[#   8]+0.031*[#  23]+0.021*[#  17]+0.020*[#   1]+0.015*[#  29]+
          +0.015*[#  30]+0.015*[#   5]+0.010*[#  14]+0.003*[#  13]+0.003*[#  22]+
          +0.003*[#  31]+0.002*[#  32]+0.001*[#  40]+
    |psi|^2 = 0.999
     e =     6.96437 eV
     psi = 0.193*[#  38]+0.193*[#  39]+0.132*[#  23]+0.106*[#  17]+0.038*[#  12]+
          +0.038*[#  20]+0.035*[#  29]+0.035*[#  30]+0.034*[#   1]+0.030*[#  14]+
          +0.030*[#  28]+0.024*[#  40]+0.019*[#   8]+0.018*[#  10]+0.018*[#  19]+
          +0.012*[#   5]+0.007*[#  37]+0.005*[#  26]+0.004*[#  13]+0.004*[#  22]+
          +0.003*[#  15]+0.003*[#  24]+0.002*[#   2]+0.002*[#   3]+0.002*[#  18]+
          +0.002*[#  25]+0.002*[#  32]+0.002*[#  11]+0.002*[#  21]+0.001*[#   7]+
          +0.001*[#   9]+0.001*[#  35]+
    |psi|^2 = 0.999
     e =     7.35081 eV
     psi = 0.304*[#  40]+0.152*[#  38]+0.152*[#  39]+0.052*[#  15]+0.052*[#  24]+
          +0.051*[#  18]+0.051*[#  25]+0.038*[#   4]+0.019*[#  12]+0.019*[#  20]+
          +0.013*[#  13]+0.013*[#  22]+0.011*[#  33]+0.010*[#   2]+0.010*[#   3]+
          +0.005*[#  34]+0.005*[#  36]+0.004*[#   7]+0.004*[#   9]+0.004*[#   8]+
          +0.004*[#  11]+0.004*[#  21]+0.003*[#   1]+0.003*[#  17]+0.003*[#  23]+
          +0.002*[#  31]+0.002*[#   5]+0.002*[#   6]+0.001*[#  10]+0.001*[#  19]+
          +0.001*[#  29]+0.001*[#  30]+
    |psi|^2 = 0.999
     e =     7.40181 eV
     psi = 0.275*[#  40]+0.146*[#  38]+0.146*[#  39]+0.052*[#  15]+0.052*[#  24]+
          +0.052*[#  18]+0.052*[#  25]+0.038*[#   4]+0.022*[#  12]+0.022*[#  20]+
          +0.016*[#  23]+0.012*[#  17]+0.011*[#  33]+0.010*[#   8]+0.010*[#  13]+
          +0.010*[#  22]+0.009*[#   7]+0.009*[#   9]+0.008*[#   2]+0.008*[#   3]+
          +0.006*[#  34]+0.006*[#  36]+0.004*[#  14]+0.003*[#   5]+0.003*[#  11]+
          +0.003*[#  21]+0.003*[#  28]+0.002*[#  29]+0.002*[#  30]+0.002*[#  31]+
          +0.002*[#   6]+0.001*[#  16]+0.001*[#  27]+0.001*[#   1]+0.001*[#  10]+
          +0.001*[#  19]+
    |psi|^2 = 0.999
     e =     8.64219 eV
     psi = 0.151*[#   7]+0.151*[#   9]+0.150*[#  18]+0.150*[#  25]+0.047*[#   5]+
          +0.044*[#  16]+0.044*[#  27]+0.031*[#  26]+0.028*[#  17]+0.025*[#  34]+
          +0.025*[#  36]+0.025*[#  32]+0.020*[#   8]+0.019*[#  14]+0.016*[#  23]+
          +0.015*[#  35]+0.009*[#  15]+0.009*[#  24]+0.005*[#  10]+0.005*[#  19]+
          +0.003*[#   6]+0.003*[#  29]+0.003*[#  30]+0.003*[#   1]+0.002*[#  33]+
          +0.002*[#   2]+0.002*[#   3]+0.001*[#  13]+0.001*[#  22]+0.001*[#  11]+
          +0.001*[#  21]+
    |psi|^2 = 0.996
     e =     8.65038 eV
     psi = 0.158*[#   5]+0.105*[#  17]+0.102*[#  26]+0.084*[#  32]+0.068*[#   8]+
          +0.067*[#  23]+0.064*[#  14]+0.050*[#  35]+0.045*[#  18]+0.045*[#  25]+
          +0.044*[#   7]+0.044*[#   9]+0.016*[#  10]+0.016*[#  19]+0.013*[#  16]+
          +0.013*[#  27]+0.008*[#   1]+0.008*[#  34]+0.008*[#  36]+0.008*[#  29]+
          +0.008*[#  30]+0.005*[#  38]+0.005*[#  39]+0.002*[#  15]+0.002*[#  24]+
          +0.002*[#   2]+0.002*[#   3]+0.002*[#  11]+0.002*[#  21]+
    |psi|^2 = 0.998
     e =     8.78479 eV
     psi = 0.264*[#  26]+0.225*[#  14]+0.143*[#  35]+0.086*[#  32]+0.071*[#   5]+
          +0.056*[#  17]+0.046*[#   8]+0.022*[#   1]+0.017*[#  23]+0.011*[#  10]+
          +0.011*[#  19]+0.006*[#  11]+0.006*[#  21]+0.006*[#   2]+0.006*[#   3]+
          +0.004*[#  15]+0.004*[#  24]+0.002*[#   7]+0.002*[#   9]+0.002*[#   6]+
          +0.001*[#  18]+0.001*[#  25]+0.001*[#  16]+0.001*[#  27]+
    |psi|^2 = 0.999
     e =     8.93124 eV
     psi = 0.148*[#  15]+0.148*[#  24]+0.110*[#   7]+0.110*[#   9]+0.102*[#   6]+
          +0.049*[#  16]+0.049*[#  27]+0.040*[#  40]+0.033*[#  18]+0.033*[#  25]+
          +0.025*[#  33]+0.021*[#  38]+0.021*[#  39]+0.012*[#  34]+0.012*[#  36]+
          +0.008*[#  31]+0.007*[#  13]+0.007*[#  22]+0.007*[#  11]+0.007*[#  21]+
          +0.007*[#   8]+0.006*[#  14]+0.004*[#  26]+0.004*[#  29]+0.004*[#  30]+
          +0.004*[#  23]+0.004*[#   4]+0.003*[#   5]+0.003*[#  17]+0.002*[#  35]+
          +0.002*[#  12]+0.002*[#  20]+0.001*[#  32]+
    |psi|^2 = 0.997
     e =     8.96377 eV
     psi = 0.130*[#  15]+0.130*[#  24]+0.115*[#   7]+0.115*[#   9]+0.101*[#   6]+
          +0.059*[#  16]+0.059*[#  27]+0.048*[#  40]+0.036*[#  18]+0.036*[#  25]+
          +0.025*[#  38]+0.025*[#  39]+0.020*[#  33]+0.011*[#  34]+0.011*[#  36]+
          +0.010*[#  31]+0.008*[#  13]+0.008*[#  22]+0.007*[#  11]+0.007*[#  21]+
          +0.005*[#  29]+0.005*[#  30]+0.005*[#   4]+0.004*[#  23]+0.003*[#  17]+
          +0.003*[#  12]+0.003*[#  20]+0.001*[#   8]+0.001*[#  14]+0.001*[#   2]+
          +0.001*[#   3]+
    |psi|^2 = 0.997
     e =     9.91119 eV
     psi = 0.287*[#  16]+0.287*[#  27]+0.107*[#  34]+0.107*[#  36]+0.049*[#   7]+
          +0.049*[#   9]+0.046*[#  18]+0.046*[#  25]+0.009*[#   6]+0.004*[#  15]+
          +0.004*[#  24]+0.003*[#  33]+
    |psi|^2 = 0.999
     e =    10.14527 eV
     psi = 0.284*[#   6]+0.131*[#  16]+0.131*[#  27]+0.088*[#  33]+0.071*[#  15]+
          +0.071*[#  24]+0.047*[#   7]+0.047*[#   9]+0.041*[#  34]+0.041*[#  36]+
          +0.019*[#  18]+0.019*[#  25]+0.002*[#  40]+0.001*[#   4]+0.001*[#  38]+
          +0.001*[#  39]+
    |psi|^2 = 0.999
     e =    10.14644 eV
     psi = 0.251*[#   6]+0.148*[#  16]+0.148*[#  27]+0.079*[#  33]+0.064*[#  15]+
          +0.064*[#  24]+0.049*[#   7]+0.049*[#   9]+0.047*[#  34]+0.047*[#  36]+
          +0.022*[#  18]+0.022*[#  25]+0.002*[#  40]+0.001*[#  38]+0.001*[#  39]+
          +0.001*[#   4]+
    |psi|^2 = 0.999
     e =    10.22718 eV
     psi = 0.321*[#   8]+0.211*[#  23]+0.202*[#  17]+0.116*[#   5]+0.056*[#  14]+
          +0.047*[#  26]+0.007*[#  15]+0.007*[#  24]+0.004*[#  18]+0.004*[#  25]+
          +0.004*[#   7]+0.004*[#   9]+0.003*[#   6]+0.001*[#  16]+0.001*[#  27]+
          +0.001*[#  40]+0.001*[#   4]+
    |psi|^2 = 0.999
     e =    10.43556 eV
     psi = 0.199*[#  23]+0.169*[#  14]+0.151*[#   8]+0.147*[#   5]+0.102*[#  17]+
          +0.072*[#  26]+0.012*[#  15]+0.012*[#  24]+0.011*[#  38]+0.011*[#  39]+
          +0.011*[#  12]+0.011*[#  20]+0.008*[#  18]+0.008*[#  25]+0.008*[#  32]+
          +0.007*[#   2]+0.007*[#   3]+0.007*[#  11]+0.007*[#  21]+0.006*[#  29]+
          +0.006*[#  30]+0.005*[#  35]+0.004*[#   7]+0.004*[#   9]+0.002*[#  28]+
          +0.002*[#  37]+0.002*[#   1]+0.001*[#  10]+0.001*[#  19]+
    |psi|^2 = 0.999
     e =    10.98021 eV
     psi = 0.174*[#  18]+0.174*[#  25]+0.164*[#   7]+0.164*[#   9]+0.065*[#  26]+
          +0.065*[#   5]+0.048*[#  15]+0.048*[#  24]+0.046*[#  14]+0.022*[#   8]+
          +0.019*[#  17]+0.002*[#  40]+0.001*[#  38]+0.001*[#  39]+0.001*[#  35]+
    |psi|^2 = 1.000
     e =    11.03988 eV
     psi = 0.228*[#  26]+0.215*[#   5]+0.171*[#  14]+0.072*[#   8]+0.062*[#   7]+
          +0.062*[#   9]+0.062*[#  18]+0.062*[#  25]+0.057*[#  17]+0.003*[#  35]+
          +0.002*[#  32]+
    |psi|^2 = 1.000
     e =    11.19665 eV
     psi = 0.205*[#  15]+0.205*[#  24]+0.129*[#  18]+0.129*[#  25]+0.070*[#   7]+
          +0.070*[#   9]+0.036*[#  40]+0.023*[#  32]+0.021*[#  38]+0.021*[#  39]+
          +0.014*[#  35]+0.013*[#   5]+0.010*[#  14]+0.009*[#  26]+0.007*[#  33]+
          +0.005*[#   8]+0.004*[#  34]+0.004*[#  36]+0.003*[#   4]+0.003*[#  23]+
          +0.002*[#  12]+0.002*[#  20]+0.002*[#  17]+0.002*[#   2]+0.002*[#   3]+
          +0.001*[#   6]+0.002*[#  13]+0.002*[#  22]+
    |psi|^2 = 1.000
     e =    11.22350 eV
     psi = 0.163*[#  15]+0.163*[#  24]+0.152*[#  18]+0.152*[#  25]+0.097*[#   7]+
          +0.097*[#   9]+0.040*[#  40]+0.019*[#  38]+0.019*[#  39]+0.019*[#  26]+
          +0.017*[#  14]+0.010*[#  33]+0.007*[#   5]+0.005*[#  34]+0.005*[#  36]+
          +0.005*[#   8]+0.004*[#  17]+0.004*[#   4]+0.003*[#  35]+0.002*[#   6]+
          +0.002*[#  23]+0.002*[#  12]+0.002*[#  20]+0.002*[#  13]+0.002*[#  22]+
          +0.002*[#  32]+0.001*[#   2]+0.001*[#   3]+0.001*[#  16]+0.001*[#  27]+
    |psi|^2 = 1.000
     e =    11.52562 eV
     psi = 0.387*[#  35]+0.231*[#  32]+0.094*[#  26]+0.078*[#  14]+0.058*[#  33]+
          +0.029*[#  34]+0.029*[#  36]+0.023*[#  17]+0.013*[#   5]+0.013*[#   6]+
          +0.013*[#   8]+0.007*[#  16]+0.007*[#  23]+0.007*[#  27]+0.001*[#   2]+
          +0.001*[#   3]+
    |psi|^2 = 1.000
     e =    11.58747 eV
     psi = 0.366*[#  32]+0.219*[#  35]+0.074*[#  33]+0.037*[#  34]+0.037*[#  36]+
          +0.037*[#  17]+0.030*[#   5]+0.029*[#  23]+0.023*[#   8]+0.019*[#   6]+
          +0.017*[#  26]+0.011*[#  40]+0.010*[#  16]+0.010*[#  27]+0.009*[#  15]+
          +0.009*[#  24]+0.009*[#  14]+0.007*[#  38]+0.007*[#  39]+0.006*[#  18]+
          +0.006*[#  25]+0.004*[#   7]+0.004*[#   9]+0.003*[#  28]+0.002*[#   2]+
          +0.002*[#   3]+0.002*[#  11]+0.002*[#  21]+0.002*[#  12]+0.002*[#  20]+
          +0.001*[#  29]+0.001*[#  30]+
    |psi|^2 = 1.000
     e =    11.64781 eV
     psi = 0.287*[#  33]+0.149*[#  34]+0.149*[#  36]+0.096*[#  32]+0.089*[#   6]+
          +0.057*[#  35]+0.046*[#  16]+0.046*[#  27]+0.014*[#  17]+0.011*[#  23]+
          +0.010*[#   8]+0.010*[#   5]+0.007*[#  40]+0.006*[#  38]+0.006*[#  39]+
          +0.005*[#  26]+0.002*[#  37]+0.002*[#  14]+0.002*[#  31]+0.001*[#   2]+
          +0.001*[#   3]+
    |psi|^2 = 0.999
     e =    11.68130 eV
     psi = 0.302*[#  33]+0.150*[#  34]+0.150*[#  36]+0.097*[#   6]+0.059*[#  35]+
          +0.048*[#  16]+0.048*[#  27]+0.036*[#  32]+0.019*[#  40]+0.012*[#  14]+
          +0.011*[#  26]+0.010*[#  38]+0.010*[#  39]+0.009*[#   8]+0.006*[#  23]+
          +0.005*[#  17]+0.005*[#   5]+0.004*[#  15]+0.004*[#  24]+0.003*[#  18]+
          +0.003*[#  25]+0.002*[#   7]+0.002*[#   9]+
    |psi|^2 = 0.999
     e =    11.86431 eV
     psi = 0.353*[#  34]+0.353*[#  36]+0.141*[#  16]+0.141*[#  27]+0.003*[#  33]+
          +0.002*[#   6]+0.001*[#  32]+
    |psi|^2 = 1.000
     e =    14.21291 eV
     psi = 0.215*[#  37]+0.179*[#  23]+0.141*[#  17]+0.104*[#   8]+0.102*[#  28]+
          +0.041*[#  38]+0.041*[#  39]+0.039*[#  14]+0.036*[#   5]+0.023*[#  29]+
          +0.023*[#  30]+0.008*[#   1]+0.006*[#  40]+0.005*[#  10]+0.005*[#  19]+
          +0.005*[#  12]+0.005*[#  20]+0.003*[#  32]+0.002*[#  11]+0.002*[#  21]+
          +0.002*[#   2]+0.002*[#   3]+0.002*[#  35]+
    |psi|^2 = 0.993
     e =    16.03837 eV
     psi = 0.134*[#  29]+0.134*[#  30]+0.098*[#  38]+0.098*[#  39]+0.061*[#   1]+
          +0.052*[#  28]+0.048*[#  11]+0.048*[#  21]+0.047*[#  10]+0.047*[#  19]+
          +0.047*[#   2]+0.047*[#   3]+0.026*[#  37]+0.024*[#  17]+0.023*[#  23]+
          +0.011*[#   5]+0.010*[#   8]+0.007*[#  32]+0.006*[#  26]+0.006*[#  14]+
          +0.004*[#  35]+0.003*[#  12]+0.003*[#  20]+0.001*[#  13]+0.001*[#  22]+
          +0.001*[#   6]+
    |psi|^2 = 0.993
     e =    17.88272 eV
     psi = 0.177*[#  31]+0.088*[#  29]+0.088*[#  30]+0.082*[#  13]+0.082*[#  22]+
          +0.063*[#  11]+0.063*[#  21]+0.062*[#   1]+0.047*[#  40]+0.032*[#   2]+
          +0.032*[#   3]+0.031*[#  10]+0.031*[#  19]+0.024*[#  38]+0.024*[#  39]+
          +0.008*[#   4]+0.006*[#   6]+0.005*[#  35]+0.004*[#  12]+0.004*[#  20]+
          +0.004*[#  26]+0.003*[#  14]+0.003*[#  32]+0.003*[#  16]+0.003*[#  27]+
          +0.002*[#  15]+0.002*[#  24]+0.002*[#   7]+0.002*[#   9]+0.002*[#  33]+
          +0.001*[#   5]+
    |psi|^2 = 0.987
     e =    18.05828 eV
     psi = 0.205*[#  31]+0.103*[#  29]+0.103*[#  30]+0.095*[#  13]+0.095*[#  22]+
          +0.059*[#  11]+0.059*[#  21]+0.047*[#  40]+0.036*[#   2]+0.036*[#   3]+
          +0.025*[#  38]+0.025*[#  39]+0.013*[#  10]+0.013*[#  19]+0.012*[#   4]+
          +0.008*[#  28]+0.007*[#  12]+0.007*[#  20]+0.007*[#   6]+0.005*[#  37]+
          +0.004*[#  16]+0.004*[#  27]+0.002*[#  15]+0.002*[#  24]+0.002*[#   7]+
          +0.002*[#   9]+0.002*[#  33]+0.001*[#  34]+0.001*[#  36]+0.001*[#  23]+
    |psi|^2 = 0.987
     e =    19.54219 eV
     psi = 0.359*[#   1]+0.180*[#  10]+0.180*[#  19]+0.034*[#  31]+0.023*[#  11]+
          +0.023*[#  21]+0.019*[#  13]+0.019*[#  22]+0.017*[#   2]+0.017*[#   3]+
          +0.017*[#  29]+0.017*[#  30]+0.015*[#  35]+0.010*[#  26]+0.009*[#  32]+
          +0.008*[#  14]+0.006*[#   4]+0.003*[#   5]+0.003*[#  12]+0.003*[#  20]+
          +0.003*[#  40]+0.003*[#  17]+0.002*[#  38]+0.002*[#  39]+0.001*[#   8]+
    |psi|^2 = 0.977
     e =    21.37991 eV
     psi = 0.296*[#  10]+0.296*[#  19]+0.057*[#   1]+0.041*[#  12]+0.041*[#  20]+
          +0.036*[#  28]+0.022*[#  11]+0.022*[#  21]+0.020*[#  37]+0.018*[#   2]+
          +0.018*[#   3]+0.018*[#  29]+0.018*[#  30]+0.009*[#  32]+0.005*[#  35]+
          +0.005*[#  13]+0.005*[#  22]+0.005*[#   5]+0.004*[#  14]+0.003*[#   4]+
          +0.003*[#  31]+0.003*[#  26]+0.002*[#   8]+0.001*[#  40]+
    |psi|^2 = 0.949

 k =   0.0416666667  0.0416666667  0.2916666667
     e =    -4.13884 eV
     psi = 0.565*[#  37]+0.079*[#  12]+0.079*[#  20]+0.044*[#   1]+0.031*[#   8]+
          +0.031*[#  10]+0.031*[#  19]+0.029*[#  23]+0.022*[#  17]+0.020*[#  29]+
          +0.020*[#  30]+0.010*[#   5]+0.007*[#  14]+0.006*[#   2]+0.006*[#   3]+
          +0.006*[#  11]+0.006*[#  21]+0.003*[#   4]+
    |psi|^2 = 0.999
     e =     5.32830 eV
     psi = 0.184*[#  38]+0.184*[#  39]+0.087*[#  11]+0.087*[#  21]+0.087*[#   2]+
          +0.087*[#   3]+0.061*[#  28]+0.049*[#  10]+0.049*[#  19]+0.031*[#  37]+
          +0.022*[#  23]+0.017*[#   8]+0.015*[#  17]+0.007*[#  14]+0.006*[#   5]+
          +0.004*[#  29]+0.004*[#  30]+0.003*[#   1]+0.003*[#  32]+0.002*[#  31]+
          +0.002*[#  35]+0.001*[#  12]+0.001*[#  13]+0.001*[#  20]+0.001*[#  22]+
    |psi|^2 = 0.999
     e =     6.98174 eV
     psi = 0.128*[#  23]+0.106*[#  38]+0.106*[#  39]+0.104*[#  17]+0.083*[#  40]+
          +0.045*[#  28]+0.045*[#  29]+0.045*[#  30]+0.029*[#   1]+0.028*[#  14]+
          +0.027*[#   8]+0.027*[#  12]+0.027*[#  20]+0.019*[#  37]+0.016*[#  18]+
          +0.016*[#  25]+0.015*[#  15]+0.015*[#  24]+0.015*[#  10]+0.015*[#  19]+
          +0.014*[#   5]+0.013*[#   2]+0.013*[#   3]+0.010*[#  11]+0.010*[#  21]+
          +0.008*[#  13]+0.008*[#  22]+0.006*[#   4]+0.004*[#  26]+0.001*[#  33]+
    |psi|^2 = 0.999
     e =     7.16858 eV
     psi = 0.290*[#  40]+0.145*[#  38]+0.145*[#  39]+0.063*[#  15]+0.063*[#  24]+
          +0.062*[#  18]+0.062*[#  25]+0.036*[#   4]+0.018*[#  12]+0.018*[#  20]+
          +0.013*[#  33]+0.011*[#  13]+0.011*[#  22]+0.009*[#   2]+0.009*[#   3]+
          +0.006*[#  34]+0.006*[#  36]+0.004*[#   8]+0.003*[#   7]+0.003*[#   9]+
          +0.002*[#  23]+0.002*[#   1]+0.002*[#  17]+0.002*[#  11]+0.002*[#  21]+
          +0.001*[#   5]+0.001*[#  10]+0.001*[#  19]+
    |psi|^2 = 0.999
     e =     7.26161 eV
     psi = 0.205*[#  40]+0.123*[#  38]+0.123*[#  39]+0.058*[#  23]+0.050*[#  15]+
          +0.050*[#  24]+0.049*[#  18]+0.049*[#  25]+0.046*[#  17]+0.031*[#   4]+
          +0.024*[#  12]+0.024*[#  20]+0.023*[#   8]+0.015*[#  28]+0.012*[#  14]+
          +0.011*[#  33]+0.011*[#  29]+0.011*[#  30]+0.009*[#   2]+0.009*[#   3]+
          +0.009*[#   5]+0.006*[#  34]+0.006*[#  36]+0.006*[#   1]+0.005*[#   7]+
          +0.005*[#   9]+0.005*[#  13]+0.005*[#  22]+0.005*[#  11]+0.005*[#  21]+
          +0.004*[#  10]+0.004*[#  19]+0.002*[#  37]+0.002*[#   6]+0.001*[#  31]+
    |psi|^2 = 0.999
     e =     8.63245 eV
     psi = 0.179*[#   5]+0.152*[#  17]+0.112*[#  26]+0.107*[#  23]+0.091*[#   8]+
          +0.080*[#  32]+0.067*[#  14]+0.048*[#  35]+0.026*[#  29]+0.026*[#  30]+
          +0.020*[#  10]+0.020*[#  19]+0.014*[#   1]+0.009*[#   2]+0.009*[#   3]+
          +0.009*[#  11]+0.009*[#  21]+0.005*[#  38]+0.005*[#  39]+0.004*[#  28]+
          +0.002*[#  37]+0.001*[#  12]+0.001*[#  20]+
    |psi|^2 = 0.999
     e =     8.72724 eV
     psi = 0.210*[#  18]+0.210*[#  25]+0.209*[#   7]+0.209*[#   9]+0.044*[#  16]+
          +0.044*[#  27]+0.025*[#  34]+0.025*[#  36]+0.006*[#  15]+0.006*[#  24]+
          +0.002*[#  33]+0.002*[#   6]+
    |psi|^2 = 0.996
     e =     8.97039 eV
     psi = 0.280*[#  26]+0.232*[#  14]+0.151*[#  35]+0.090*[#  32]+0.062*[#  17]+
          +0.055*[#   5]+0.037*[#   8]+0.015*[#   1]+0.014*[#  23]+0.010*[#  11]+
          +0.010*[#  21]+0.009*[#   2]+0.009*[#   3]+0.007*[#  10]+0.007*[#  19]+
          +0.002*[#  15]+0.002*[#  24]+0.001*[#   6]+0.001*[#   7]+0.001*[#   9]+
    |psi|^2 = 0.999
     e =     9.09674 eV
     psi = 0.156*[#  15]+0.156*[#  24]+0.130*[#   6]+0.122*[#   7]+0.122*[#   9]+
          +0.057*[#  16]+0.057*[#  27]+0.025*[#  40]+0.018*[#  33]+0.015*[#  18]+
          +0.015*[#  25]+0.015*[#  38]+0.015*[#  39]+0.010*[#  31]+0.009*[#  11]+
          +0.009*[#  21]+0.008*[#  13]+0.008*[#  22]+0.008*[#  34]+0.008*[#  36]+
          +0.006*[#  29]+0.006*[#  30]+0.005*[#   8]+0.004*[#  14]+0.003*[#  23]+
          +0.003*[#  26]+0.002*[#   4]+0.002*[#  17]+0.002*[#   5]+0.001*[#  12]+
          +0.001*[#  20]+0.001*[#  35]+
    |psi|^2 = 0.998
     e =     9.11000 eV
     psi = 0.138*[#   7]+0.138*[#   9]+0.129*[#  15]+0.129*[#  24]+0.119*[#   6]+
          +0.072*[#  16]+0.072*[#  27]+0.031*[#  40]+0.018*[#  18]+0.018*[#  25]+
          +0.014*[#  38]+0.014*[#  39]+0.013*[#  31]+0.013*[#  33]+0.009*[#  13]+
          +0.009*[#  22]+0.008*[#  11]+0.008*[#  21]+0.008*[#  34]+0.008*[#  36]+
          +0.006*[#  29]+0.006*[#  30]+0.005*[#  23]+0.003*[#  17]+0.003*[#   4]+
          +0.002*[#  12]+0.002*[#  20]+0.001*[#   8]+0.001*[#  14]+
    |psi|^2 = 0.997
     e =     9.82446 eV
     psi = 0.303*[#  16]+0.303*[#  27]+0.118*[#  34]+0.118*[#  36]+0.037*[#   7]+
          +0.037*[#   9]+0.034*[#  18]+0.034*[#  25]+0.005*[#   6]+0.003*[#  15]+
          +0.003*[#  24]+0.001*[#  33]+
    |psi|^2 = 0.999
     e =    10.20883 eV
     psi = 0.311*[#   8]+0.205*[#  23]+0.182*[#  17]+0.107*[#   5]+0.060*[#  14]+
          +0.037*[#  26]+0.014*[#  15]+0.014*[#  24]+0.012*[#   7]+0.012*[#   9]+
          +0.012*[#  33]+0.006*[#  34]+0.006*[#  36]+0.005*[#   6]+0.002*[#  18]+
          +0.002*[#  25]+0.002*[#  16]+0.002*[#  27]+0.001*[#   4]+
    |psi|^2 = 0.999
     e =    10.24613 eV
     psi = 0.285*[#   6]+0.132*[#  16]+0.132*[#  27]+0.071*[#  15]+0.071*[#  24]+
          +0.061*[#  33]+0.052*[#   7]+0.052*[#   9]+0.028*[#  34]+0.028*[#  36]+
          +0.018*[#   8]+0.015*[#  18]+0.015*[#  25]+0.012*[#  23]+0.010*[#  17]+
          +0.006*[#   5]+0.003*[#  14]+0.001*[#  40]+
    |psi|^2 = 0.999
     e =    10.25012 eV
     psi = 0.258*[#   6]+0.147*[#  16]+0.147*[#  27]+0.072*[#  15]+0.072*[#  24]+
          +0.065*[#   7]+0.065*[#   9]+0.064*[#  33]+0.037*[#  34]+0.037*[#  36]+
          +0.013*[#  18]+0.013*[#  25]+0.002*[#  40]+0.001*[#   4]+
    |psi|^2 = 0.999
     e =    10.37025 eV
     psi = 0.193*[#   5]+0.191*[#  14]+0.166*[#   8]+0.145*[#  23]+0.103*[#  26]+
          +0.057*[#  17]+0.015*[#  12]+0.015*[#  20]+0.008*[#  15]+0.008*[#  24]+
          +0.009*[#  29]+0.009*[#  30]+0.008*[#   2]+0.008*[#   3]+0.008*[#  11]+
          +0.008*[#  21]+0.007*[#  18]+0.007*[#  25]+0.005*[#  38]+0.005*[#  39]+
          +0.004*[#  32]+0.003*[#   1]+0.003*[#  28]+0.003*[#  35]+0.002*[#  33]+
          +0.002*[#  10]+0.002*[#  19]+0.002*[#   7]+0.002*[#   9]+0.002*[#  37]+
          +0.001*[#  34]+0.001*[#  36]+
    |psi|^2 = 0.999
     e =    10.90742 eV
     psi = 0.288*[#   5]+0.257*[#  26]+0.187*[#  14]+0.096*[#   8]+0.070*[#  17]+
          +0.019*[#  18]+0.019*[#  25]+0.015*[#   7]+0.015*[#   9]+0.007*[#  15]+
          +0.007*[#  24]+0.007*[#  35]+0.004*[#  32]+0.002*[#  40]+
    |psi|^2 = 1.000
     e =    10.99691 eV
     psi = 0.220*[#  18]+0.220*[#  25]+0.211*[#   7]+0.211*[#   9]+0.024*[#   5]+
          +0.024*[#  15]+0.024*[#  24]+0.023*[#  26]+0.018*[#  14]+0.008*[#   8]+
          +0.005*[#  17]+0.002*[#  33]+0.001*[#   6]+
    |psi|^2 = 1.000
     e =    11.26126 eV
     psi = 0.146*[#  15]+0.146*[#  24]+0.111*[#  18]+0.111*[#  25]+0.090*[#  33]+
          +0.051*[#  32]+0.045*[#  34]+0.045*[#  36]+0.033*[#   7]+0.033*[#   9]+
          +0.031*[#  35]+0.031*[#  40]+0.016*[#  38]+0.016*[#  39]+0.015*[#   6]+
          +0.014*[#   5]+0.009*[#  26]+0.008*[#  14]+0.008*[#  16]+0.008*[#  27]+
          +0.005*[#   8]+0.004*[#   4]+0.003*[#  13]+0.003*[#  22]+0.003*[#   2]+
          +0.003*[#   3]+0.002*[#  12]+0.002*[#  20]+0.001*[#  17]+0.001*[#  31]+
    |psi|^2 = 1.000
     e =    11.29512 eV
     psi = 0.126*[#  33]+0.124*[#  18]+0.124*[#  25]+0.122*[#  15]+0.122*[#  24]+
          +0.063*[#  34]+0.063*[#  36]+0.055*[#   7]+0.055*[#   9]+0.028*[#  40]+
          +0.024*[#   6]+0.014*[#  38]+0.014*[#  39]+0.012*[#  16]+0.012*[#  27]+
          +0.005*[#   4]+0.004*[#  14]+0.004*[#  26]+0.003*[#  13]+0.003*[#  22]+
          +0.003*[#   2]+0.003*[#   3]+0.002*[#  12]+0.002*[#  20]+0.002*[#   5]+
          +0.002*[#   8]+0.002*[#  31]+
    |psi|^2 = 1.000
     e =    11.46953 eV
     psi = 0.299*[#  35]+0.179*[#  32]+0.099*[#  26]+0.093*[#  33]+0.075*[#  14]+
          +0.047*[#  34]+0.047*[#  36]+0.024*[#  17]+0.018*[#  40]+0.015*[#   6]+
          +0.014*[#  15]+0.014*[#  24]+0.011*[#  18]+0.011*[#  25]+0.009*[#  38]+
          +0.009*[#  39]+0.008*[#  16]+0.008*[#  27]+0.005*[#   7]+0.005*[#   9]+
          +0.003*[#   5]+0.001*[#   8]+
    |psi|^2 = 1.000
     e =    11.50404 eV
     psi = 0.284*[#  33]+0.143*[#  34]+0.143*[#  36]+0.061*[#   6]+0.060*[#  40]+
          +0.042*[#  15]+0.042*[#  24]+0.035*[#  18]+0.035*[#  25]+0.030*[#  16]+
          +0.030*[#  27]+0.030*[#  38]+0.030*[#  39]+0.008*[#   7]+0.008*[#   9]+
          +0.004*[#  32]+0.003*[#  35]+0.001*[#   4]+0.002*[#  37]+0.001*[#  29]+
          +0.001*[#  30]+
    |psi|^2 = 0.999
     e =    11.55567 eV
     psi = 0.466*[#  32]+0.280*[#  35]+0.035*[#  17]+0.030*[#  23]+0.025*[#   8]+
          +0.020*[#   5]+0.017*[#  33]+0.009*[#  15]+0.009*[#  24]+0.009*[#  26]+
          +0.009*[#  34]+0.009*[#  36]+0.007*[#   6]+0.006*[#  18]+0.006*[#  25]+
          +0.005*[#  28]+0.005*[#  14]+0.005*[#   2]+0.005*[#   3]+0.004*[#  11]+
          +0.004*[#  21]+0.003*[#  16]+0.003*[#  27]+0.003*[#   7]+0.003*[#   9]+
          +0.003*[#  38]+0.003*[#  39]+0.002*[#  40]+0.002*[#  12]+0.002*[#  20]+
          +0.002*[#  29]+0.002*[#  30]+0.002*[#  37]+
    |psi|^2 = 1.000
     e =    11.60442 eV
     psi = 0.168*[#  33]+0.141*[#  35]+0.085*[#  32]+0.084*[#  34]+0.084*[#  36]+
          +0.051*[#  40]+0.044*[#   6]+0.031*[#  26]+0.031*[#  15]+0.031*[#  24]+
          +0.029*[#  14]+0.028*[#  18]+0.028*[#  25]+0.026*[#  38]+0.026*[#  39]+
          +0.022*[#  16]+0.022*[#  27]+0.017*[#   8]+0.012*[#  17]+0.011*[#  23]+
          +0.008*[#   5]+0.007*[#   7]+0.007*[#   9]+0.002*[#   4]+
    |psi|^2 = 0.999
     e =    11.86275 eV
     psi = 0.353*[#  34]+0.353*[#  36]+0.144*[#  16]+0.144*[#  27]+0.001*[#   6]+
    |psi|^2 = 1.000
     e =    14.39465 eV
     psi = 0.226*[#  37]+0.148*[#  23]+0.126*[#  17]+0.102*[#   8]+0.063*[#  28]+
          +0.058*[#  29]+0.058*[#  30]+0.039*[#   5]+0.032*[#  38]+0.032*[#  39]+
          +0.026*[#  14]+0.018*[#   1]+0.014*[#  10]+0.014*[#  19]+0.007*[#  40]+
          +0.005*[#  12]+0.005*[#  20]+0.005*[#  32]+0.004*[#  26]+0.003*[#  35]+
    |psi|^2 = 0.994
     e =    15.52424 eV
     psi = 0.140*[#  38]+0.140*[#  39]+0.090*[#  28]+0.090*[#  29]+0.090*[#  30]+
          +0.069*[#  23]+0.057*[#  17]+0.041*[#  11]+0.041*[#  21]+0.039*[#   2]+
          +0.039*[#   3]+0.036*[#   1]+0.023*[#  37]+0.019*[#  10]+0.019*[#  19]+
          +0.017*[#  14]+0.010*[#   5]+0.009*[#   8]+0.005*[#  26]+0.002*[#  32]+
          +0.002*[#  13]+0.002*[#  22]+0.001*[#   6]+0.001*[#  12]+0.001*[#  20]+
          +0.001*[#  35]+
    |psi|^2 = 0.992
     e =    18.07985 eV
     psi = 0.178*[#  31]+0.089*[#  29]+0.089*[#  30]+0.086*[#  13]+0.086*[#  22]+
          +0.083*[#  11]+0.083*[#  21]+0.051*[#   1]+0.032*[#  40]+0.028*[#   2]+
          +0.028*[#   3]+0.026*[#  10]+0.026*[#  19]+0.016*[#  38]+0.016*[#  39]+
          +0.010*[#   6]+0.006*[#  35]+0.005*[#   4]+0.005*[#  16]+0.005*[#  27]+
          +0.004*[#  15]+0.004*[#  24]+0.004*[#   7]+0.004*[#   9]+0.004*[#  26]+
          +0.003*[#  32]+0.003*[#  14]+0.003*[#  12]+0.003*[#  20]+0.002*[#  33]+
    |psi|^2 = 0.984
     e =    18.34576 eV
     psi = 0.209*[#  31]+0.105*[#  29]+0.105*[#  30]+0.099*[#  13]+0.099*[#  22]+
          +0.076*[#  11]+0.076*[#  21]+0.032*[#  40]+0.023*[#   2]+0.023*[#   3]+
          +0.020*[#  38]+0.020*[#  39]+0.010*[#   6]+0.010*[#  10]+0.010*[#  19]+
          +0.009*[#   4]+0.006*[#  16]+0.006*[#  27]+0.005*[#  12]+0.005*[#  20]+
          +0.005*[#  28]+0.004*[#  15]+0.004*[#  24]+0.004*[#   7]+0.004*[#   9]+
          +0.003*[#  37]+0.002*[#  23]+0.002*[#  33]+0.002*[#  17]+0.001*[#  34]+
          +0.001*[#  36]+
    |psi|^2 = 0.984
     e =    19.71589 eV
     psi = 0.367*[#   1]+0.183*[#  10]+0.183*[#  19]+0.033*[#  31]+0.028*[#  11]+
          +0.028*[#  21]+0.019*[#  13]+0.019*[#  22]+0.017*[#  29]+0.017*[#  30]+
          +0.016*[#   2]+0.016*[#   3]+0.011*[#  35]+0.008*[#  26]+0.007*[#  32]+
          +0.006*[#  14]+0.004*[#   4]+0.003*[#   5]+0.002*[#  12]+0.002*[#  17]+
          +0.002*[#  20]+0.001*[#   6]+0.001*[#  40]+0.001*[#   8]+
    |psi|^2 = 0.981
     e =    22.25089 eV
     psi = 0.199*[#   2]+0.199*[#   3]+0.169*[#  11]+0.169*[#  21]+0.043*[#   1]+
          +0.036*[#  13]+0.036*[#  22]+0.021*[#  10]+0.021*[#  19]+0.010*[#   4]+
          +0.009*[#  40]+0.007*[#  35]+0.005*[#  12]+0.005*[#  20]+0.004*[#  38]+
          +0.004*[#  39]+0.004*[#  32]+0.004*[#  26]+0.003*[#  14]+0.003*[#  33]+
          +0.001*[#  34]+0.001*[#  36]+
    |psi|^2 = 0.958

 k =   0.0416666667  0.0416666667  0.3750000000
     e =    -4.01881 eV
     psi = 0.565*[#  37]+0.100*[#  12]+0.100*[#  20]+0.036*[#   1]+0.032*[#   8]+
          +0.025*[#  23]+0.024*[#  29]+0.024*[#  30]+0.021*[#  10]+0.021*[#  19]+
          +0.019*[#  17]+0.011*[#   5]+0.006*[#  14]+0.003*[#   2]+0.003*[#   3]+
          +0.003*[#  11]+0.003*[#  21]+0.002*[#   4]+
    |psi|^2 = 0.999
     e =     4.90925 eV
     psi = 0.204*[#  38]+0.204*[#  39]+0.090*[#  11]+0.090*[#  21]+0.090*[#   2]+
          +0.090*[#   3]+0.047*[#  10]+0.047*[#  19]+0.035*[#  23]+0.034*[#  28]+
          +0.026*[#  17]+0.011*[#  37]+0.009*[#  14]+0.005*[#   8]+0.003*[#  32]+
          +0.002*[#   5]+0.002*[#  35]+0.001*[#  31]+0.001*[#  12]+0.001*[#  20]+
          +0.001*[#  29]+0.001*[#  30]+
    |psi|^2 = 0.999
     e =     7.01868 eV
     psi = 0.261*[#  40]+0.134*[#  38]+0.134*[#  39]+0.064*[#  18]+0.064*[#  25]+
          +0.063*[#  15]+0.063*[#  24]+0.031*[#   4]+0.018*[#  12]+0.018*[#  20]+
          +0.012*[#  23]+0.012*[#   2]+0.012*[#   3]+0.011*[#  13]+0.011*[#  22]+
          +0.011*[#  33]+0.010*[#  17]+0.010*[#  29]+0.010*[#  30]+0.007*[#  37]+
          +0.005*[#  34]+0.005*[#  36]+0.005*[#  28]+0.005*[#   1]+0.003*[#  14]+
          +0.003*[#  11]+0.003*[#  21]+0.002*[#   7]+0.002*[#   9]+0.003*[#  10]+
          +0.003*[#  19]+0.002*[#   5]+0.001*[#   8]+
    |psi|^2 = 0.999
     e =     7.03872 eV
     psi = 0.283*[#  40]+0.141*[#  38]+0.141*[#  39]+0.069*[#  18]+0.069*[#  25]+
          +0.069*[#  15]+0.069*[#  24]+0.035*[#   4]+0.018*[#  12]+0.018*[#  20]+
          +0.014*[#  33]+0.010*[#  13]+0.010*[#  22]+0.009*[#   2]+0.009*[#   3]+
          +0.007*[#  34]+0.007*[#  36]+0.004*[#   8]+0.002*[#  23]+0.002*[#   1]+
          +0.002*[#  17]+0.002*[#   7]+0.002*[#   9]+0.001*[#   5]+0.001*[#  10]+
          +0.001*[#  19]+
    |psi|^2 = 0.999
     e =     7.41058 eV
     psi = 0.187*[#  23]+0.153*[#  17]+0.054*[#  28]+0.053*[#  38]+0.053*[#  39]+
          +0.053*[#   8]+0.046*[#  29]+0.046*[#  30]+0.039*[#  14]+0.029*[#  11]+
          +0.029*[#  21]+0.028*[#   2]+0.028*[#   3]+0.024*[#   5]+0.022*[#  12]+
          +0.022*[#  20]+0.021*[#  40]+0.020*[#   1]+0.016*[#  37]+0.013*[#  10]+
          +0.013*[#  19]+0.007*[#  15]+0.007*[#  24]+0.006*[#  18]+0.006*[#  25]+
          +0.005*[#   4]+0.005*[#  26]+0.003*[#  33]+0.002*[#  32]+0.001*[#   7]+
          +0.001*[#   9]+0.001*[#  34]+0.001*[#  36]+0.001*[#   6]+0.001*[#  35]+
    |psi|^2 = 0.999
     e =     8.51284 eV
     psi = 0.165*[#  17]+0.142*[#   5]+0.129*[#  23]+0.099*[#   8]+0.082*[#  26]+
          +0.051*[#  29]+0.051*[#  30]+0.045*[#  14]+0.045*[#  32]+0.027*[#  35]+
          +0.019*[#   1]+0.018*[#  10]+0.018*[#  19]+0.016*[#   2]+0.016*[#   3]+
          +0.016*[#  11]+0.016*[#  21]+0.008*[#  28]+0.007*[#  12]+0.007*[#  20]+
          +0.007*[#  37]+0.006*[#  38]+0.006*[#  39]+
    |psi|^2 = 0.999
     e =     8.81112 eV
     psi = 0.228*[#  18]+0.228*[#  25]+0.227*[#   7]+0.227*[#   9]+0.023*[#  16]+
          +0.023*[#  27]+0.014*[#  34]+0.014*[#  36]+0.003*[#  15]+0.003*[#  24]+
          +0.002*[#  33]+
    |psi|^2 = 0.996
     e =     9.16438 eV
     psi = 0.299*[#  26]+0.237*[#  14]+0.159*[#  35]+0.096*[#  32]+0.071*[#  17]+
          +0.030*[#   5]+0.021*[#   8]+0.013*[#  11]+0.013*[#  21]+0.012*[#   2]+
          +0.012*[#   3]+0.008*[#  23]+0.007*[#   1]+0.003*[#  10]+0.003*[#  19]+
          +0.002*[#   6]+0.002*[#  15]+0.002*[#  24]+0.002*[#   7]+0.002*[#   9]+
          +0.001*[#  16]+0.001*[#  27]+
    |psi|^2 = 0.999
     e =     9.21085 eV
     psi = 0.202*[#  15]+0.202*[#  24]+0.195*[#   6]+0.090*[#   7]+0.090*[#   9]+
          +0.048*[#  16]+0.048*[#  27]+0.012*[#  11]+0.012*[#  21]+0.009*[#  29]+
          +0.009*[#  30]+0.009*[#  31]+0.008*[#  33]+0.008*[#  38]+0.008*[#  39]+
          +0.008*[#  40]+0.006*[#  13]+0.006*[#  22]+0.005*[#  23]+0.004*[#  18]+
          +0.004*[#  25]+0.003*[#  17]+0.002*[#  14]+0.002*[#  34]+0.002*[#  36]+
    |psi|^2 = 0.998
     e =     9.21359 eV
     psi = 0.200*[#   7]+0.200*[#   9]+0.096*[#  15]+0.096*[#  24]+0.095*[#  16]+
          +0.095*[#  27]+0.084*[#   6]+0.017*[#  31]+0.016*[#  40]+0.012*[#  13]+
          +0.012*[#  22]+0.007*[#  18]+0.007*[#  25]+0.005*[#  11]+0.005*[#  21]+
          +0.005*[#  33]+0.005*[#  34]+0.005*[#  36]+0.004*[#  26]+0.004*[#  29]+
          +0.004*[#  30]+0.004*[#  38]+0.004*[#  39]+0.003*[#  14]+0.003*[#   8]+
          +0.003*[#  17]+0.002*[#  23]+0.002*[#  35]+0.001*[#   4]+0.001*[#   5]+
          +0.001*[#  32]+
    |psi|^2 = 0.998
     e =     9.73633 eV
     psi = 0.325*[#  16]+0.325*[#  27]+0.131*[#  34]+0.131*[#  36]+0.020*[#   7]+
          +0.020*[#   9]+0.018*[#  18]+0.018*[#  25]+0.004*[#   6]+0.002*[#  15]+
          +0.002*[#  24]+
    |psi|^2 = 0.998
     e =    10.18381 eV
     psi = 0.338*[#   8]+0.221*[#  23]+0.172*[#  17]+0.113*[#   5]+0.071*[#  14]+
          +0.023*[#  26]+0.010*[#  33]+0.009*[#  15]+0.009*[#  24]+0.005*[#  18]+
          +0.005*[#  25]+0.005*[#  34]+0.005*[#  36]+0.005*[#   7]+0.005*[#   9]+
    |psi|^2 = 0.999
     e =    10.24286 eV
     psi = 0.243*[#   5]+0.216*[#  14]+0.171*[#   8]+0.140*[#  26]+0.098*[#  23]+
          +0.021*[#  17]+0.016*[#  12]+0.016*[#  20]+0.009*[#  29]+0.009*[#  30]+
          +0.005*[#  15]+0.005*[#  24]+0.005*[#   2]+0.005*[#   3]+0.005*[#  11]+
          +0.005*[#  21]+0.004*[#  18]+0.004*[#  25]+0.004*[#   1]+0.002*[#  33]+
          +0.002*[#  10]+0.002*[#  19]+0.002*[#  28]+0.001*[#   6]+0.001*[#  34]+
          +0.001*[#  36]+0.001*[#   7]+0.001*[#   9]+0.001*[#  38]+0.001*[#  39]+
    |psi|^2 = 0.999
     e =    10.33978 eV
     psi = 0.316*[#   6]+0.142*[#  16]+0.142*[#  27]+0.081*[#  15]+0.081*[#  24]+
          +0.067*[#   7]+0.067*[#   9]+0.037*[#  33]+0.017*[#  34]+0.017*[#  36]+
          +0.006*[#  18]+0.006*[#  25]+0.005*[#   8]+0.003*[#  23]+0.002*[#  35]+
          +0.002*[#  17]+0.002*[#   5]+0.001*[#  32]+
    |psi|^2 = 0.999
     e =    10.34426 eV
     psi = 0.271*[#   6]+0.158*[#  16]+0.158*[#  27]+0.078*[#   7]+0.078*[#   9]+
          +0.075*[#  15]+0.075*[#  24]+0.038*[#  33]+0.023*[#  34]+0.023*[#  36]+
          +0.006*[#  18]+0.006*[#  25]+0.002*[#  32]+0.001*[#  35]+0.001*[#  31]+
    |psi|^2 = 0.999
     e =    10.79380 eV
     psi = 0.338*[#   5]+0.256*[#  26]+0.179*[#  14]+0.114*[#   8]+0.079*[#  17]+
          +0.006*[#  35]+0.003*[#  18]+0.003*[#  25]+0.003*[#  32]+0.003*[#   7]+
          +0.003*[#   9]+0.002*[#   1]+0.001*[#  10]+0.001*[#  15]+0.001*[#  19]+
          +0.001*[#  23]+0.001*[#  24]+0.001*[#  33]+
    |psi|^2 = 1.000
     e =    10.98766 eV
     psi = 0.234*[#  18]+0.234*[#  25]+0.217*[#   7]+0.217*[#   9]+0.024*[#  15]+
          +0.024*[#  24]+0.012*[#  33]+0.006*[#  34]+0.006*[#  36]+0.005*[#   5]+
          +0.004*[#  26]+0.003*[#  14]+0.002*[#   6]+0.002*[#   8]+0.002*[#  40]+
          +0.001*[#  16]+0.001*[#  27]+
    |psi|^2 = 1.000
     e =    11.20366 eV
     psi = 0.310*[#  33]+0.155*[#  34]+0.155*[#  36]+0.055*[#  15]+0.055*[#  24]+
          +0.048*[#  18]+0.048*[#  25]+0.034*[#  32]+0.028*[#   6]+0.020*[#  35]+
          +0.014*[#  16]+0.014*[#  27]+0.007*[#   7]+0.007*[#   9]+0.006*[#   5]+
          +0.005*[#  14]+0.004*[#   2]+0.004*[#   3]+0.004*[#  13]+0.004*[#  22]+
          +0.004*[#  26]+0.003*[#   8]+0.002*[#  40]+0.002*[#   4]+0.002*[#  38]+
          +0.002*[#  39]+0.001*[#  12]+0.001*[#  20]+0.001*[#  31]+
    |psi|^2 = 1.000
     e =    11.22257 eV
     psi = 0.317*[#  33]+0.159*[#  34]+0.159*[#  36]+0.062*[#  18]+0.062*[#  25]+
          +0.043*[#  15]+0.043*[#  24]+0.031*[#   6]+0.029*[#   7]+0.029*[#   9]+
          +0.015*[#  16]+0.015*[#  27]+0.003*[#   2]+0.003*[#   3]+0.003*[#  13]+
          +0.003*[#  22]+0.003*[#  35]+0.002*[#   4]+0.002*[#  32]+0.002*[#  40]+
          +0.001*[#  31]+0.001*[#  12]+0.001*[#  20]+
    |psi|^2 = 1.000
     e =    11.45489 eV
     psi = 0.461*[#  32]+0.279*[#  35]+0.050*[#  33]+0.026*[#  34]+0.026*[#  36]+
          +0.016*[#  17]+0.013*[#  23]+0.012*[#   6]+0.012*[#   8]+0.011*[#   5]+
          +0.011*[#  40]+0.007*[#  28]+0.006*[#  16]+0.006*[#  27]+0.006*[#  18]+
          +0.006*[#  25]+0.006*[#  15]+0.006*[#  24]+0.005*[#  26]+0.005*[#  38]+
          +0.005*[#  39]+0.004*[#   2]+0.004*[#   3]+0.004*[#  11]+0.004*[#  21]+
          +0.002*[#  14]+0.002*[#  37]+
    |psi|^2 = 0.999
     e =    11.47570 eV
     psi = 0.380*[#  35]+0.230*[#  32]+0.137*[#  26]+0.103*[#  14]+0.034*[#  17]+
          +0.017*[#  15]+0.017*[#  24]+0.015*[#  18]+0.015*[#  25]+0.012*[#  40]+
          +0.006*[#  38]+0.006*[#  39]+0.005*[#   7]+0.005*[#   9]+0.005*[#  33]+
          +0.002*[#  34]+0.002*[#  36]+0.001*[#   2]+0.001*[#   3]+0.001*[#   5]+
          +0.001*[#  11]+0.001*[#  21]+
    |psi|^2 = 1.000
     e =    11.52868 eV
     psi = 0.122*[#  15]+0.122*[#  24]+0.113*[#  18]+0.113*[#  25]+0.111*[#  40]+
          +0.067*[#  32]+0.063*[#  33]+0.055*[#  38]+0.055*[#  39]+0.040*[#  35]+
          +0.032*[#  34]+0.032*[#  36]+0.011*[#   7]+0.011*[#   9]+0.006*[#   4]+
          +0.005*[#   6]+0.004*[#  12]+0.004*[#  20]+0.003*[#  23]+0.003*[#  16]+
          +0.003*[#  27]+0.003*[#  29]+0.003*[#  30]+0.002*[#   2]+0.002*[#   3]+
          +0.002*[#  17]+0.002*[#  37]+0.001*[#  11]+0.001*[#  21]+0.001*[#  14]+
          +0.001*[#  28]+
    |psi|^2 = 0.999
     e =    11.62477 eV
     psi = 0.116*[#  40]+0.099*[#  18]+0.099*[#  25]+0.098*[#  15]+0.098*[#  24]+
          +0.087*[#  33]+0.058*[#  38]+0.058*[#  39]+0.046*[#  35]+0.043*[#  34]+
          +0.043*[#  36]+0.028*[#  32]+0.015*[#   8]+0.014*[#   7]+0.014*[#   9]+
          +0.012*[#   6]+0.011*[#  14]+0.010*[#  23]+0.009*[#  26]+0.008*[#  17]+
          +0.007*[#   4]+0.006*[#  16]+0.006*[#  27]+0.006*[#   5]+0.003*[#  12]+
          +0.003*[#  20]+
    |psi|^2 = 0.999
     e =    11.86225 eV
     psi = 0.352*[#  34]+0.352*[#  36]+0.145*[#  16]+0.145*[#  27]+
    |psi|^2 = 1.000
     e =    14.41148 eV
     psi = 0.256*[#  37]+0.115*[#   8]+0.106*[#  29]+0.106*[#  30]+0.101*[#  23]+
          +0.100*[#  17]+0.050*[#   5]+0.031*[#   1]+0.019*[#  10]+0.019*[#  19]+
          +0.019*[#  28]+0.011*[#  38]+0.011*[#  39]+0.010*[#  14]+0.009*[#  40]+
          +0.009*[#  26]+0.005*[#  12]+0.005*[#  20]+0.004*[#  32]+0.002*[#  35]+
          +0.002*[#   4]+
    |psi|^2 = 0.994
     e =    15.34063 eV
     psi = 0.175*[#  38]+0.175*[#  39]+0.133*[#  23]+0.130*[#  28]+0.101*[#  17]+
          +0.034*[#  11]+0.034*[#  21]+0.034*[#  14]+0.032*[#   2]+0.032*[#   3]+
          +0.030*[#  29]+0.030*[#  30]+0.010*[#   1]+0.008*[#  10]+0.008*[#  19]+
          +0.005*[#  37]+0.003*[#   5]+0.003*[#  13]+0.003*[#  22]+0.002*[#   8]+
          +0.002*[#  26]+0.002*[#   6]+
    |psi|^2 = 0.992
     e =    18.25323 eV
     psi = 0.182*[#  31]+0.108*[#  11]+0.108*[#  21]+0.095*[#  13]+0.095*[#  22]+
          +0.091*[#  29]+0.091*[#  30]+0.028*[#   1]+0.025*[#   2]+0.025*[#   3]+
          +0.015*[#  40]+0.014*[#  10]+0.014*[#  19]+0.013*[#   6]+0.007*[#  38]+
          +0.007*[#  39]+0.007*[#  15]+0.007*[#  24]+0.006*[#   7]+0.006*[#   9]+
          +0.006*[#  16]+0.006*[#  27]+0.006*[#  35]+0.003*[#  26]+0.003*[#  32]+
          +0.003*[#  14]+0.002*[#   4]+0.001*[#  12]+0.001*[#  20]+0.001*[#  33]+
    |psi|^2 = 0.980
     e =    18.59572 eV
     psi = 0.211*[#  31]+0.106*[#  13]+0.106*[#  22]+0.106*[#  29]+0.106*[#  30]+
          +0.096*[#  11]+0.096*[#  21]+0.015*[#  40]+0.013*[#  38]+0.013*[#  39]+
          +0.013*[#   6]+0.011*[#   2]+0.011*[#   3]+0.007*[#  16]+0.007*[#  27]+
          +0.007*[#  10]+0.007*[#  19]+0.007*[#  15]+0.007*[#  24]+0.006*[#   7]+
          +0.006*[#   9]+0.004*[#   4]+0.003*[#  23]+0.003*[#  28]+0.002*[#  12]+
          +0.002*[#  20]+0.002*[#  17]+0.001*[#  37]+0.001*[#  33]+0.001*[#  34]+
          +0.001*[#  36]+
    |psi|^2 = 0.980
     e =    19.89452 eV
     psi = 0.407*[#   1]+0.204*[#  10]+0.204*[#  19]+0.023*[#  11]+0.023*[#  21]+
          +0.022*[#  31]+0.014*[#  13]+0.014*[#  22]+0.011*[#  29]+0.011*[#  30]+
          +0.010*[#   2]+0.010*[#   3]+0.006*[#  35]+0.006*[#  26]+0.004*[#  14]+
          +0.004*[#  32]+0.003*[#   5]+0.001*[#  17]+0.001*[#   4]+0.001*[#   6]+
          +0.001*[#   8]+
    |psi|^2 = 0.984
     e =    21.66389 eV
     psi = 0.197*[#   2]+0.197*[#   3]+0.180*[#  11]+0.180*[#  21]+0.037*[#   1]+
          +0.019*[#  13]+0.019*[#  22]+0.018*[#  10]+0.018*[#  19]+0.012*[#  35]+
          +0.008*[#  31]+0.008*[#  40]+0.007*[#  32]+0.007*[#   4]+0.007*[#  26]+
          +0.005*[#  14]+0.004*[#  29]+0.004*[#  30]+0.004*[#  38]+0.004*[#  39]+
          +0.003*[#  12]+0.003*[#  20]+0.002*[#  33]+0.002*[#  17]+
    |psi|^2 = 0.949

 k =   0.0416666667  0.0416666667  0.4583333333
     e =    -3.94630 eV
     psi = 0.565*[#  37]+0.111*[#  12]+0.111*[#  20]+0.033*[#   1]+0.032*[#   8]+
          +0.027*[#  29]+0.027*[#  30]+0.022*[#  23]+0.017*[#  10]+0.017*[#  17]+
          +0.017*[#  19]+0.011*[#   5]+0.005*[#  14]+0.002*[#   4]+
    |psi|^2 = 0.999
     e =     4.66130 eV
     psi = 0.207*[#  38]+0.207*[#  39]+0.092*[#  11]+0.092*[#  21]+0.092*[#   2]+
          +0.092*[#   3]+0.046*[#  10]+0.046*[#  19]+0.044*[#  23]+0.033*[#  17]+
          +0.026*[#  28]+0.011*[#  14]+0.002*[#  32]+0.001*[#  35]+0.001*[#  31]+
          +0.001*[#  37]+
    |psi|^2 = 0.999
     e =     6.97013 eV
     psi = 0.284*[#  40]+0.138*[#  38]+0.138*[#  39]+0.074*[#  18]+0.074*[#  25]+
          +0.070*[#  15]+0.070*[#  24]+0.035*[#   4]+0.017*[#  12]+0.017*[#  20]+
          +0.014*[#  33]+0.009*[#  13]+0.009*[#  22]+0.009*[#   2]+0.009*[#   3]+
          +0.007*[#  34]+0.007*[#  36]+0.003*[#   8]+0.002*[#  23]+0.002*[#   1]+
          +0.002*[#  17]+0.001*[#   5]+0.001*[#   7]+0.001*[#   9]+
    |psi|^2 = 0.999
     e =     6.97097 eV
     psi = 0.273*[#  40]+0.141*[#  38]+0.141*[#  39]+0.072*[#  15]+0.072*[#  18]+
          +0.072*[#  24]+0.072*[#  25]+0.034*[#   4]+0.018*[#  12]+0.018*[#  20]+
          +0.013*[#  33]+0.010*[#   2]+0.010*[#   3]+0.010*[#  13]+0.010*[#  22]+
          +0.006*[#  34]+0.006*[#  36]+0.004*[#  29]+0.004*[#  30]+0.004*[#  37]+
          +0.002*[#   7]+0.002*[#   9]+0.002*[#   1]+
    |psi|^2 = 0.999
     e =     7.77184 eV
     psi = 0.232*[#  23]+0.184*[#  17]+0.056*[#  28]+0.053*[#  14]+0.051*[#  11]+
          +0.051*[#  21]+0.050*[#   2]+0.050*[#   3]+0.037*[#  38]+0.037*[#  39]+
          +0.030*[#   8]+0.027*[#  29]+0.027*[#  30]+0.017*[#   5]+0.011*[#  10]+
          +0.011*[#  19]+0.011*[#  32]+0.009*[#   1]+0.008*[#  12]+0.008*[#  20]+
          +0.008*[#  37]+0.007*[#  35]+0.005*[#  26]+0.002*[#  40]+0.001*[#   6]+
          +0.001*[#  15]+0.001*[#  24]+
    |psi|^2 = 0.999
     e =     8.26586 eV
     psi = 0.157*[#  17]+0.128*[#   8]+0.121*[#   5]+0.118*[#  23]+0.091*[#  29]+
          +0.091*[#  30]+0.059*[#  26]+0.029*[#   1]+0.020*[#  14]+0.019*[#  12]+
          +0.019*[#  20]+0.019*[#  37]+0.018*[#  10]+0.018*[#  19]+0.012*[#   2]+
          +0.012*[#   3]+0.012*[#  11]+0.012*[#  21]+0.012*[#  32]+0.007*[#  28]+
          +0.007*[#  35]+0.006*[#  38]+0.006*[#  39]+0.001*[#  40]+0.001*[#   4]+
    |psi|^2 = 0.999
     e =     8.86976 eV
     psi = 0.244*[#  18]+0.244*[#  25]+0.243*[#   7]+0.243*[#   9]+0.003*[#  16]+
          +0.003*[#  27]+0.003*[#  34]+0.003*[#  36]+0.002*[#  33]+0.001*[#  15]+
          +0.001*[#  24]+
    |psi|^2 = 0.996
     e =     9.25612 eV
     psi = 0.168*[#  15]+0.168*[#  24]+0.164*[#   6]+0.138*[#   7]+0.138*[#   9]+
          +0.069*[#  16]+0.069*[#  27]+0.013*[#  31]+0.010*[#  11]+0.010*[#  21]+
          +0.008*[#  13]+0.008*[#  22]+0.008*[#  29]+0.008*[#  30]+0.005*[#  23]+
          +0.004*[#  17]+0.001*[#  14]+0.001*[#  40]+
    |psi|^2 = 0.998
     e =     9.26793 eV
     psi = 0.171*[#   7]+0.171*[#   9]+0.142*[#  15]+0.142*[#  24]+0.132*[#   6]+
          +0.080*[#  16]+0.080*[#  27]+0.015*[#  31]+0.010*[#  13]+0.010*[#  22]+
          +0.009*[#  11]+0.009*[#  21]+0.006*[#  29]+0.006*[#  30]+0.002*[#  26]+
          +0.001*[#  40]+0.001*[#  14]+0.001*[#  35]+
    |psi|^2 = 0.998
     e =     9.30020 eV
     psi = 0.325*[#  26]+0.246*[#  14]+0.170*[#  35]+0.102*[#  32]+0.081*[#  17]+
          +0.014*[#   2]+0.014*[#   3]+0.014*[#  11]+0.014*[#  21]+0.005*[#   5]+
          +0.004*[#   8]+0.002*[#   7]+0.002*[#   9]+0.001*[#  15]+0.002*[#  23]+
          +0.001*[#  24]+
    |psi|^2 = 0.999
     e =     9.67587 eV
     psi = 0.345*[#  16]+0.345*[#  27]+0.142*[#  34]+0.142*[#  36]+0.004*[#   7]+
          +0.004*[#   9]+0.004*[#   6]+0.003*[#  18]+0.003*[#  25]+0.002*[#  15]+
          +0.002*[#  24]+
    |psi|^2 = 0.998
     e =    10.15578 eV
     psi = 0.425*[#   8]+0.171*[#   5]+0.170*[#  23]+0.144*[#  17]+0.032*[#  14]+
          +0.012*[#  33]+0.008*[#  18]+0.008*[#  25]+0.006*[#  26]+0.004*[#  15]+
          +0.004*[#  24]+0.004*[#  34]+0.004*[#  36]+
    |psi|^2 = 0.999
     e =    10.15792 eV
     psi = 0.285*[#  14]+0.232*[#   5]+0.170*[#  26]+0.126*[#  23]+0.100*[#   8]+
          +0.015*[#  12]+0.015*[#  20]+0.011*[#  17]+0.007*[#  29]+0.007*[#  30]+
          +0.005*[#  15]+0.005*[#  24]+0.003*[#   1]+0.003*[#  34]+0.003*[#  36]+
          +0.002*[#  10]+0.002*[#  19]+0.001*[#  18]+0.001*[#  25]+
    |psi|^2 = 0.999
     e =    10.40662 eV
     psi = 0.388*[#   6]+0.134*[#  16]+0.134*[#  27]+0.095*[#  15]+0.095*[#  24]+
          +0.064*[#   7]+0.064*[#   9]+0.007*[#  33]+0.004*[#  35]+0.002*[#  34]+
          +0.002*[#  36]+0.002*[#  32]+0.002*[#  31]+0.001*[#  29]+0.001*[#  30]+
    |psi|^2 = 1.000
     e =    10.40816 eV
     psi = 0.257*[#   6]+0.193*[#  16]+0.193*[#  27]+0.096*[#   7]+0.096*[#   9]+
          +0.066*[#  15]+0.066*[#  24]+0.006*[#  34]+0.006*[#  36]+0.005*[#  33]+
          +0.005*[#  32]+0.002*[#  35]+0.002*[#  31]+
    |psi|^2 = 1.000
     e =    10.71584 eV
     psi = 0.361*[#   5]+0.243*[#  26]+0.158*[#  14]+0.125*[#   8]+0.089*[#  17]+
          +0.004*[#   1]+0.004*[#  23]+0.002*[#  10]+0.002*[#  19]+0.002*[#  33]+
          +0.001*[#  18]+0.001*[#  25]+0.001*[#   7]+0.001*[#   9]+
    |psi|^2 = 1.000
     e =    10.97679 eV
     psi = 0.226*[#  18]+0.226*[#  25]+0.202*[#   7]+0.202*[#   9]+0.039*[#  33]+
          +0.025*[#  15]+0.025*[#  24]+0.019*[#  34]+0.019*[#  36]+0.003*[#   5]+
          +0.002*[#  26]+0.001*[#  14]+0.001*[#  40]+
    |psi|^2 = 1.000
     e =    11.12019 eV
     psi = 0.412*[#  33]+0.205*[#  34]+0.205*[#  36]+0.031*[#  15]+0.031*[#  24]+
          +0.030*[#  18]+0.030*[#  25]+0.005*[#   6]+0.004*[#   2]+0.004*[#   3]+
          +0.004*[#  13]+0.004*[#  22]+0.004*[#  32]+0.003*[#   8]+0.003*[#   5]+
          +0.003*[#  14]+0.003*[#  16]+0.003*[#  27]+0.002*[#  35]+0.002*[#   4]+
          +0.002*[#  23]+0.002*[#  26]+0.001*[#   7]+0.001*[#   9]+0.001*[#  12]+
          +0.001*[#  20]+
    |psi|^2 = 0.999
     e =    11.14619 eV
     psi = 0.363*[#  33]+0.182*[#  34]+0.182*[#  36]+0.059*[#  18]+0.059*[#  25]+
          +0.038*[#   7]+0.038*[#   9]+0.022*[#  15]+0.022*[#  24]+0.005*[#   6]+
          +0.003*[#   2]+0.003*[#   3]+0.003*[#  13]+0.003*[#  22]+0.003*[#  16]+
          +0.003*[#  27]+0.002*[#   8]+0.002*[#  17]+0.002*[#  23]+0.001*[#   4]+
          +0.001*[#   5]+
    |psi|^2 = 1.000
     e =    11.39400 eV
     psi = 0.583*[#  32]+0.350*[#  35]+0.011*[#  28]+0.007*[#  23]+0.006*[#  17]+
          +0.005*[#   2]+0.005*[#   3]+0.005*[#  11]+0.005*[#  21]+0.004*[#   6]+
          +0.003*[#  33]+0.002*[#  16]+0.002*[#  27]+0.002*[#  34]+0.002*[#  36]+
          +0.002*[#   8]+0.002*[#  14]+0.001*[#   5]+
    |psi|^2 = 0.999
     e =    11.47921 eV
     psi = 0.421*[#  35]+0.253*[#  32]+0.154*[#  26]+0.115*[#  14]+0.038*[#  17]+
          +0.002*[#  15]+0.002*[#  24]+0.001*[#   6]+0.001*[#   2]+0.001*[#   3]+
          +0.001*[#  11]+0.001*[#  18]+0.001*[#  21]+0.001*[#  25]+0.001*[#   7]+
          +0.001*[#   9]+
    |psi|^2 = 1.000
     e =    11.56785 eV
     psi = 0.143*[#  15]+0.143*[#  24]+0.143*[#  18]+0.143*[#  25]+0.141*[#  40]+
          +0.070*[#  38]+0.070*[#  39]+0.046*[#  33]+0.023*[#  34]+0.023*[#  36]+
          +0.008*[#   4]+0.005*[#  12]+0.005*[#  20]+0.004*[#  37]+0.003*[#   5]+
          +0.002*[#  26]+0.002*[#  29]+0.002*[#  30]+0.002*[#   7]+0.002*[#   9]+
          +0.002*[#  32]+0.002*[#   8]+0.002*[#  17]+0.001*[#   2]+0.001*[#   3]+
          +0.001*[#  13]+0.001*[#  22]+0.001*[#   1]+0.001*[#  14]+0.001*[#  35]+
    |psi|^2 = 0.999
     e =    11.67102 eV
     psi = 0.147*[#  40]+0.132*[#  18]+0.132*[#  25]+0.125*[#  15]+0.125*[#  24]+
          +0.074*[#  38]+0.074*[#  39]+0.053*[#  33]+0.026*[#  34]+0.026*[#  36]+
          +0.012*[#   8]+0.010*[#   4]+0.010*[#   7]+0.010*[#   9]+0.008*[#  23]+
          +0.005*[#  17]+0.005*[#  12]+0.005*[#  20]+0.004*[#   5]+0.003*[#  14]+
          +0.003*[#  35]+0.002*[#  32]+0.001*[#   2]+0.001*[#   3]+0.001*[#  13]+
          +0.001*[#  22]+0.001*[#   6]+
    |psi|^2 = 0.999
     e =    11.85883 eV
     psi = 0.352*[#  34]+0.352*[#  36]+0.146*[#  16]+0.146*[#  27]+
    |psi|^2 = 1.000
     e =    14.35336 eV
     psi = 0.270*[#  37]+0.124*[#  29]+0.124*[#  30]+0.124*[#   8]+0.090*[#  17]+
          +0.081*[#  23]+0.056*[#   5]+0.035*[#   1]+0.018*[#  10]+0.018*[#  19]+
          +0.011*[#  26]+0.010*[#  40]+0.005*[#  38]+0.005*[#  39]+0.005*[#  12]+
          +0.005*[#  20]+0.003*[#  14]+0.002*[#   4]+0.002*[#  28]+
    |psi|^2 = 0.993
     e =    15.32519 eV
     psi = 0.184*[#  38]+0.184*[#  39]+0.163*[#  23]+0.145*[#  28]+0.122*[#  17]+
          +0.041*[#  14]+0.030*[#  11]+0.030*[#  21]+0.027*[#   2]+0.027*[#   3]+
          +0.010*[#  10]+0.010*[#  19]+0.003*[#  13]+0.003*[#  22]+0.003*[#  29]+
          +0.003*[#  30]+0.002*[#   6]+0.001*[#   7]+0.001*[#   9]+0.001*[#  15]+
          +0.001*[#  24]+
    |psi|^2 = 0.993
     e =    18.34792 eV
     psi = 0.187*[#  31]+0.128*[#  11]+0.128*[#  21]+0.106*[#  13]+0.106*[#  22]+
          +0.094*[#  29]+0.094*[#  30]+0.023*[#   2]+0.023*[#   3]+0.015*[#   6]+
          +0.008*[#   7]+0.008*[#   9]+0.008*[#  15]+0.008*[#  24]+0.007*[#  16]+
          +0.007*[#  27]+0.005*[#  35]+0.004*[#   1]+0.003*[#  32]+0.003*[#  26]+
          +0.002*[#  14]+0.002*[#  10]+0.002*[#  19]+0.002*[#  40]+
    |psi|^2 = 0.977
     e =    18.73453 eV
     psi = 0.212*[#  31]+0.112*[#  13]+0.112*[#  22]+0.112*[#  11]+0.112*[#  21]+
          +0.106*[#  29]+0.106*[#  30]+0.015*[#   6]+0.008*[#  38]+0.008*[#  39]+
          +0.008*[#   7]+0.008*[#   9]+0.008*[#  15]+0.008*[#  24]+0.008*[#  16]+
          +0.008*[#  27]+0.005*[#  10]+0.005*[#  19]+0.004*[#  23]+0.003*[#  17]+
          +0.002*[#   2]+0.002*[#   3]+0.002*[#  28]+0.002*[#  40]+
    |psi|^2 = 0.979
     e =    20.01745 eV
     psi = 0.467*[#   1]+0.234*[#  10]+0.234*[#  19]+0.005*[#  11]+0.005*[#  21]+
          +0.004*[#  13]+0.004*[#  22]+0.004*[#  31]+0.004*[#   2]+0.004*[#   3]+
          +0.003*[#   5]+0.003*[#  40]+0.003*[#  26]+0.002*[#  14]+0.002*[#  29]+
          +0.002*[#  30]+0.002*[#  38]+0.002*[#  39]+0.001*[#   8]+
    |psi|^2 = 0.988
     e =    21.32788 eV
     psi = 0.205*[#  11]+0.205*[#  21]+0.196*[#   2]+0.196*[#   3]+0.021*[#  31]+
          +0.018*[#  35]+0.014*[#  13]+0.014*[#  22]+0.011*[#  32]+0.010*[#  29]+
          +0.010*[#  30]+0.010*[#  26]+0.008*[#   1]+0.008*[#  14]+0.004*[#  10]+
          +0.004*[#  19]+0.003*[#  17]+0.002*[#  40]+0.001*[#   4]+
    |psi|^2 = 0.945

 k =   0.0416666667  0.1250000000  0.1250000000
     e =    -4.31725 eV
     psi = 0.571*[#  37]+0.058*[#  10]+0.058*[#  19]+0.054*[#   1]+0.040*[#   4]+
          +0.038*[#  23]+0.028*[#  17]+0.027*[#   8]+0.022*[#  12]+0.022*[#  20]+
          +0.010*[#  31]+0.009*[#  14]+0.009*[#  13]+0.009*[#  22]+0.009*[#   5]+
          +0.006*[#  29]+0.006*[#  30]+0.005*[#  11]+0.005*[#  21]+0.005*[#   2]+
          +0.005*[#   3]+0.002*[#  28]+
    |psi|^2 = 0.999
     e =     5.84851 eV
     psi = 0.173*[#  28]+0.070*[#  37]+0.069*[#  23]+0.065*[#   1]+0.055*[#  13]+
          +0.055*[#  22]+0.053*[#  10]+0.053*[#  19]+0.052*[#  17]+0.044*[#  40]+
          +0.042*[#   8]+0.030*[#   2]+0.030*[#   3]+0.030*[#  11]+0.030*[#  21]+
          +0.027*[#  31]+0.023*[#  38]+0.023*[#  39]+0.017*[#  14]+0.016*[#  29]+
          +0.016*[#  30]+0.014*[#   5]+0.003*[#   4]+0.002*[#  12]+0.002*[#   9]+
          +0.002*[#  18]+0.002*[#  20]+0.002*[#   7]+0.002*[#  25]+
    |psi|^2 = 0.999
     e =     7.08480 eV
     psi = 0.324*[#  40]+0.161*[#  38]+0.161*[#  39]+0.032*[#   4]+0.029*[#   8]+
          +0.022*[#   1]+0.020*[#  17]+0.019*[#  23]+0.018*[#  13]+0.018*[#  22]+
          +0.016*[#  12]+0.016*[#  20]+0.013*[#  18]+0.013*[#  25]+0.012*[#   5]+
          +0.011*[#  10]+0.011*[#  19]+0.011*[#   7]+0.011*[#   9]+0.010*[#  11]+
          +0.010*[#  21]+0.010*[#  31]+0.008*[#   2]+0.008*[#   3]+0.007*[#  26]+
          +0.006*[#  14]+0.005*[#  29]+0.005*[#  30]+0.004*[#  35]+0.003*[#  32]+
          +0.002*[#  15]+0.002*[#  24]+
    |psi|^2 = 0.999
     e =     7.32931 eV
     psi = 0.208*[#  40]+0.177*[#  38]+0.177*[#  39]+0.046*[#   8]+0.034*[#   4]+
          +0.031*[#   7]+0.031*[#   9]+0.030*[#  23]+0.024*[#  12]+0.024*[#  20]+
          +0.023*[#  18]+0.023*[#  25]+0.018*[#   5]+0.016*[#  17]+0.016*[#  14]+
          +0.013*[#  10]+0.013*[#  19]+0.009*[#  31]+0.008*[#  15]+0.008*[#  24]+
          +0.007*[#  11]+0.007*[#  21]+0.007*[#  34]+0.007*[#  36]+0.006*[#   2]+
          +0.006*[#   3]+0.006*[#  28]+0.005*[#  29]+0.005*[#  30]+0.003*[#  13]+
          +0.003*[#  22]+0.002*[#  26]+0.002*[#  32]+0.001*[#  16]+0.001*[#  27]+
    |psi|^2 = 0.999
     e =     7.47276 eV
     psi = 0.259*[#  38]+0.259*[#  39]+0.051*[#  40]+0.046*[#  15]+0.046*[#  24]+
          +0.046*[#   7]+0.046*[#   9]+0.038*[#  12]+0.038*[#  20]+0.019*[#  23]+
          +0.014*[#   8]+0.014*[#  17]+0.013*[#  18]+0.013*[#  25]+0.011*[#   4]+
          +0.009*[#  11]+0.009*[#  21]+0.009*[#   2]+0.009*[#   3]+0.008*[#  33]+
          +0.006*[#  34]+0.006*[#  36]+0.005*[#   5]+0.005*[#  14]+0.003*[#  29]+
          +0.003*[#  30]+0.003*[#  28]+0.002*[#   6]+0.002*[#  31]+0.002*[#  16]+
          +0.002*[#  27]+0.002*[#   1]+0.001*[#  10]+0.001*[#  19]+
    |psi|^2 = 0.999
     e =     8.63428 eV
     psi = 0.167*[#  15]+0.167*[#  24]+0.087*[#  18]+0.087*[#  25]+0.080*[#   7]+
          +0.080*[#   9]+0.059*[#   6]+0.036*[#  33]+0.032*[#  26]+0.029*[#  16]+
          +0.029*[#  27]+0.028*[#  14]+0.018*[#  34]+0.018*[#  36]+0.017*[#  35]+
          +0.011*[#   5]+0.010*[#  32]+0.007*[#   8]+0.006*[#  17]+0.004*[#   1]+
          +0.003*[#  11]+0.003*[#  21]+0.002*[#   2]+0.002*[#   3]+0.002*[#  23]+
          +0.002*[#  10]+0.002*[#  19]+0.002*[#  31]+
    |psi|^2 = 0.997
     e =     8.67337 eV
     psi = 0.204*[#  26]+0.197*[#  14]+0.108*[#  35]+0.082*[#   5]+0.075*[#   8]+
          +0.064*[#  32]+0.043*[#  17]+0.036*[#  23]+0.023*[#  15]+0.023*[#  24]+
          +0.021*[#   1]+0.012*[#   7]+0.012*[#   9]+0.012*[#  18]+0.012*[#  25]+
          +0.010*[#  10]+0.010*[#  19]+0.009*[#   6]+0.007*[#  40]+0.006*[#  33]+
[...]
    |psi|^2 = 0.999
     e =    10.45430 eV
     psi = 0.207*[#   5]+0.152*[#  18]+0.152*[#  25]+0.137*[#  32]+0.069*[#   8]+
          +0.046*[#  35]+0.032*[#  13]+0.032*[#  22]+0.031*[#   2]+0.031*[#   3]+
          +0.026*[#  29]+0.026*[#  30]+0.011*[#   7]+0.011*[#   9]+0.010*[#  26]+
          +0.007*[#  14]+0.005*[#  16]+0.005*[#  27]+0.003*[#  17]+0.002*[#  15]+
          +0.002*[#  24]+
    |psi|^2 = 0.999
     e =    10.77464 eV
     psi = 0.096*[#  35]+0.090*[#  13]+0.090*[#  22]+0.076*[#   2]+0.076*[#   3]+
          +0.071*[#  18]+0.071*[#  25]+0.063*[#  29]+0.063*[#  30]+0.051*[#  33]+
          +0.045*[#   6]+0.032*[#  32]+0.025*[#  16]+0.025*[#  27]+0.011*[#   1]+
          +0.011*[#  28]+0.011*[#  40]+0.010*[#   7]+0.010*[#   9]+0.009*[#   8]+
          +0.009*[#  11]+0.009*[#  21]+0.008*[#  31]+0.008*[#  15]+0.008*[#  24]+
          +0.004*[#  34]+0.004*[#  36]+0.003*[#   5]+0.002*[#  38]+0.002*[#  39]+
    |psi|^2 = 0.998
     e =    11.01529 eV
     psi = 0.248*[#  26]+0.188*[#  14]+0.112*[#  15]+0.112*[#  24]+0.111*[#   7]+
          +0.111*[#   9]+0.059*[#  17]+0.022*[#   5]+0.014*[#  18]+0.014*[#  25]+
          +0.007*[#   8]+
    |psi|^2 = 1.000
     e =    11.28330 eV
     psi = 0.261*[#  34]+0.261*[#  36]+0.089*[#   7]+0.089*[#   9]+0.080*[#  33]+
          +0.059*[#  15]+0.059*[#  24]+0.015*[#  18]+0.015*[#  25]+0.012*[#  23]+
          +0.008*[#  14]+0.007*[#  38]+0.007*[#  39]+0.007*[#  10]+0.007*[#  19]+
          +0.006*[#  37]+0.005*[#  17]+0.002*[#  35]+0.002*[#   8]+0.002*[#  26]+
          +0.001*[#   1]+0.001*[#  40]+
    |psi|^2 = 1.000
     e =    11.33221 eV
     psi = 0.529*[#  33]+0.146*[#  18]+0.146*[#  25]+0.038*[#  34]+0.038*[#  36]+
          +0.019*[#  35]+0.012*[#   1]+0.009*[#  15]+0.009*[#  24]+0.009*[#  40]+
          +0.009*[#   8]+0.009*[#   7]+0.009*[#   9]+0.006*[#  32]+0.003*[#   5]+
          +0.002*[#  23]+0.002*[#  17]+
    |psi|^2 = 1.000
     e =    11.35499 eV
     psi = 0.293*[#  34]+0.293*[#  36]+0.090*[#  15]+0.090*[#  24]+0.083*[#   7]+
          +0.083*[#   9]+0.012*[#  23]+0.010*[#  32]+0.008*[#  17]+0.007*[#  10]+
          +0.007*[#  19]+0.005*[#  38]+0.005*[#  39]+0.003*[#  14]+0.003*[#  35]+
          +0.001*[#   5]+
    |psi|^2 = 1.000
     e =    11.46833 eV
     psi = 0.399*[#  32]+0.133*[#  35]+0.103*[#   5]+0.073*[#  16]+0.073*[#  27]+
          +0.048*[#  18]+0.048*[#  25]+0.034*[#   8]+0.011*[#  13]+0.011*[#  22]+
          +0.010*[#   2]+0.010*[#   3]+0.010*[#  29]+0.010*[#  30]+0.008*[#  15]+
          +0.008*[#  24]+0.003*[#  26]+0.002*[#  14]+0.002*[#  34]+0.002*[#  36]+
    |psi|^2 = 1.000
     e =    11.61143 eV
     psi = 0.292*[#  35]+0.097*[#  32]+0.064*[#   7]+0.064*[#   9]+0.064*[#   6]+
          +0.050*[#  26]+0.047*[#  31]+0.045*[#  11]+0.045*[#  21]+0.037*[#  17]+
          +0.033*[#  16]+0.033*[#  27]+0.022*[#  14]+0.021*[#  34]+0.021*[#  36]+
          +0.019*[#  33]+0.009*[#  23]+0.006*[#  38]+0.006*[#  39]+0.004*[#  10]+
          +0.004*[#  19]+0.001*[#  13]+0.001*[#  15]+0.001*[#  22]+0.001*[#  24]+
          +0.001*[#  28]+0.001*[#   2]+0.001*[#   3]+0.001*[#   8]+
    |psi|^2 = 0.999
     e =    12.05543 eV
     psi = 0.175*[#  35]+0.069*[#  31]+0.060*[#  11]+0.060*[#  21]+0.058*[#  32]+
          +0.057*[#   7]+0.057*[#   9]+0.045*[#   6]+0.040*[#  17]+0.034*[#  33]+
          +0.031*[#  26]+0.027*[#  34]+0.027*[#  36]+0.026*[#  16]+0.026*[#  27]+
          +0.018*[#  13]+0.018*[#  22]+0.017*[#  23]+0.015*[#   8]+0.012*[#  18]+
          +0.012*[#  25]+0.011*[#  29]+0.011*[#  30]+0.011*[#  38]+0.011*[#  39]+
          +0.010*[#   2]+0.010*[#   3]+0.009*[#  40]+0.008*[#  10]+0.008*[#   1]+
          +0.008*[#  14]+0.008*[#  19]+0.005*[#   5]+0.002*[#  28]+0.002*[#   4]+
    |psi|^2 = 0.998
     e =    12.96094 eV
     psi = 0.077*[#  32]+0.077*[#   2]+0.077*[#   3]+0.069*[#  29]+0.069*[#  30]+
          +0.067*[#  13]+0.067*[#  22]+0.043*[#  23]+0.036*[#  38]+0.036*[#  39]+
          +0.033*[#  34]+0.033*[#  36]+0.027*[#  15]+0.027*[#  24]+0.027*[#  17]+
          +0.026*[#  35]+0.025*[#  16]+0.025*[#  27]+0.024*[#   5]+0.019*[#  10]+
          +0.019*[#  19]+0.017*[#   7]+0.017*[#   9]+0.017*[#  14]+0.015*[#  18]+
          +0.015*[#  25]+0.008*[#   8]+0.001*[#  12]+0.001*[#  20]+
    |psi|^2 = 0.997
     e =    13.58231 eV
     psi = 0.084*[#  38]+0.084*[#  39]+0.084*[#  23]+0.067*[#  17]+0.051*[#  13]+
          +0.051*[#  22]+0.050*[#   2]+0.050*[#   3]+0.045*[#  29]+0.045*[#  30]+
          +0.045*[#  34]+0.045*[#  36]+0.040*[#   7]+0.040*[#   9]+0.035*[#  10]+
          +0.035*[#  19]+0.029*[#  15]+0.029*[#  24]+0.020*[#  32]+0.017*[#  14]+
          +0.009*[#   5]+0.007*[#  16]+0.007*[#  27]+0.007*[#  35]+0.005*[#  18]+
          +0.005*[#  25]+0.003*[#   8]+0.002*[#  12]+0.002*[#  20]+
    |psi|^2 = 0.996
     e =    14.21131 eV
     psi = 0.213*[#  40]+0.151*[#   8]+0.090*[#   1]+0.079*[#  33]+0.062*[#  28]+
          +0.060*[#  18]+0.060*[#  25]+0.050*[#   5]+0.046*[#   2]+0.046*[#   3]+
          +0.031*[#  13]+0.031*[#  22]+0.014*[#  16]+0.014*[#  27]+0.013*[#  29]+
          +0.013*[#  30]+0.005*[#   6]+0.005*[#  31]+0.003*[#  11]+0.003*[#  21]+
          +0.002*[#  35]+
    |psi|^2 = 0.996
     e =    14.58903 eV
     psi = 0.124*[#  11]+0.124*[#  21]+0.108*[#  38]+0.108*[#  39]+0.096*[#  31]+
          +0.089*[#  23]+0.051*[#  17]+0.042*[#  14]+0.035*[#  15]+0.035*[#  24]+
          +0.033*[#  10]+0.033*[#  19]+0.031*[#  34]+0.031*[#  36]+0.015*[#   7]+
          +0.015*[#   9]+0.011*[#  28]+0.004*[#  26]+0.003*[#   6]+0.002*[#   4]+
          +0.001*[#  37]+
    |psi|^2 = 0.994
     e =    17.49920 eV
     psi = 0.670*[#  28]+0.064*[#  29]+0.064*[#  30]+0.036*[#   6]+0.031*[#  16]+
          +0.031*[#  27]+0.021*[#  40]+0.009*[#   2]+0.009*[#   3]+0.008*[#  13]+
          +0.008*[#  22]+0.008*[#   8]+0.007*[#  31]+0.003*[#  38]+0.003*[#  39]+
          +0.003*[#   5]+0.001*[#  23]+0.001*[#  17]+0.001*[#  37]+
    |psi|^2 = 0.983
     e =    20.42195 eV
     psi = 0.203*[#  10]+0.203*[#  19]+0.131*[#  37]+0.065*[#  38]+0.065*[#  39]+
          +0.054*[#  12]+0.054*[#  20]+0.049*[#   4]+0.025*[#  23]+0.019*[#  17]+
          +0.016*[#  11]+0.016*[#  21]+0.012*[#  34]+0.012*[#  36]+0.009*[#   1]+
          +0.007*[#  31]+0.007*[#  14]+0.005*[#  28]+0.003*[#  40]+0.001*[#   2]+
          +0.001*[#   3]+0.001*[#   8]+0.001*[#  13]+0.001*[#  22]+
    |psi|^2 = 0.964
     e =    21.30753 eV
     psi = 0.334*[#  10]+0.334*[#  19]+0.103*[#  38]+0.103*[#  39]+0.024*[#  23]+
          +0.019*[#  17]+0.012*[#  11]+0.012*[#  21]+0.008*[#  34]+0.008*[#  36]+
          +0.005*[#  14]+0.001*[#  13]+0.001*[#  22]+
    |psi|^2 = 0.967

 k =   0.4583333333  0.3750000000  0.4583333333
     e =    -3.02295 eV
     psi = 0.694*[#  37]+0.101*[#  12]+0.101*[#  20]+0.082*[#   4]+0.007*[#   1]+
          +0.007*[#   8]+0.002*[#   5]+0.001*[#  23]+
    |psi|^2 = 1.000
     e =     4.66943 eV
     psi = 0.255*[#  38]+0.255*[#  39]+0.074*[#  23]+0.055*[#  17]+0.054*[#  15]+
          +0.054*[#  24]+0.053*[#  10]+0.053*[#  19]+0.047*[#   7]+0.047*[#   9]+
          +0.019*[#  14]+0.008*[#  34]+0.008*[#  36]+0.004*[#   2]+0.004*[#   3]+
          +0.004*[#  29]+0.004*[#  30]+
    |psi|^2 = 0.999
     e =     4.67222 eV
     psi = 0.254*[#  38]+0.254*[#  39]+0.072*[#  23]+0.054*[#  15]+0.054*[#  24]+
          +0.054*[#  17]+0.052*[#  10]+0.052*[#  19]+0.047*[#   7]+0.047*[#   9]+
          +0.018*[#  14]+0.007*[#  34]+0.007*[#  36]+0.004*[#   2]+0.004*[#   3]+
          +0.004*[#  29]+0.004*[#  30]+0.002*[#  31]+0.001*[#  37]+0.001*[#  40]+
          +0.001*[#  11]+0.001*[#  21]+
    |psi|^2 = 0.999
     e =     4.88508 eV
     psi = 0.512*[#  40]+0.114*[#  18]+0.114*[#  25]+0.097*[#   8]+0.095*[#   1]+
          +0.032*[#   5]+0.016*[#  33]+0.006*[#  37]+0.005*[#   4]+
    |psi|^2 = 0.999
     e =     8.24305 eV
     psi = 0.277*[#   6]+0.254*[#  16]+0.254*[#  27]+0.165*[#  28]+0.017*[#  11]+
          +0.017*[#  21]+0.002*[#   2]+0.002*[#   3]+0.002*[#  13]+0.002*[#  22]+
          +0.002*[#  23]+0.001*[#  17]+0.001*[#  31]+
    |psi|^2 = 0.999
     e =     9.11885 eV
     psi = 0.214*[#  23]+0.172*[#  17]+0.076*[#  34]+0.076*[#  36]+0.074*[#   8]+
          +0.043*[#  14]+0.042*[#   7]+0.042*[#   9]+0.038*[#  33]+0.035*[#  15]+
          +0.035*[#  24]+0.025*[#   5]+0.022*[#  10]+0.022*[#  19]+0.014*[#  18]+
          +0.014*[#  25]+0.011*[#   1]+0.005*[#  29]+0.005*[#  30]+0.004*[#  38]+
          +0.004*[#  39]+0.004*[#   2]+0.004*[#   3]+0.002*[#  40]+0.002*[#   6]+
          +0.002*[#  12]+0.002*[#  20]+0.001*[#  16]+0.001*[#  27]+0.001*[#  31]+
          +0.001*[#   4]+
    |psi|^2 = 0.999
     e =     9.15138 eV
     psi = 0.261*[#  23]+0.210*[#  17]+0.097*[#  34]+0.097*[#  36]+0.054*[#   7]+
          +0.054*[#   9]+0.052*[#  14]+0.045*[#  15]+0.045*[#  24]+0.026*[#  10]+
          +0.026*[#  19]+0.005*[#  38]+0.005*[#  39]+0.004*[#  29]+0.004*[#  30]+
          +0.004*[#   2]+0.004*[#   3]+
    |psi|^2 = 0.999
     e =     9.20949 eV
     psi = 0.322*[#   8]+0.183*[#  33]+0.107*[#   5]+0.073*[#  18]+0.073*[#  25]+
          +0.048*[#  23]+0.040*[#   1]+0.033*[#  17]+0.019*[#  34]+0.019*[#  36]+
          +0.016*[#  14]+0.013*[#  15]+0.013*[#  24]+0.008*[#  40]+0.008*[#   7]+
          +0.008*[#   9]+0.004*[#  10]+0.004*[#  19]+0.002*[#  12]+0.002*[#  20]+
    |psi|^2 = 0.999
     e =     9.75359 eV
     psi = 0.172*[#  26]+0.143*[#  14]+0.107*[#  15]+0.107*[#  24]+0.092*[#   7]+
          +0.092*[#   9]+0.088*[#   5]+0.067*[#  18]+0.067*[#  25]+0.031*[#  17]+
          +0.029*[#   8]+0.001*[#  23]+
    |psi|^2 = 0.999
     e =     9.75418 eV
     psi = 0.231*[#  26]+0.181*[#  14]+0.133*[#  15]+0.133*[#  24]+0.132*[#   7]+
          +0.132*[#   9]+0.051*[#  17]+0.001*[#   6]+0.001*[#   8]+0.001*[#  35]+
    |psi|^2 = 0.999
     e =     9.83188 eV
     psi = 0.266*[#   5]+0.195*[#  18]+0.195*[#  25]+0.089*[#   8]+0.060*[#  26]+
          +0.045*[#  14]+0.035*[#   7]+0.035*[#   9]+0.032*[#  15]+0.032*[#  24]+
          +0.016*[#  17]+
    |psi|^2 = 1.000
     e =    10.27969 eV
     psi = 0.488*[#   6]+0.162*[#  35]+0.141*[#  16]+0.141*[#  27]+0.054*[#  32]+
          +0.003*[#  31]+0.002*[#  26]+0.002*[#  14]+0.002*[#  11]+0.002*[#  21]+
    |psi|^2 = 0.999
     e =    10.34736 eV
     psi = 0.377*[#  16]+0.377*[#  27]+0.178*[#  32]+0.059*[#  35]+0.001*[#  26]+
          +0.001*[#  17]+
    |psi|^2 = 1.000
     e =    10.61595 eV
     psi = 0.147*[#  26]+0.119*[#   7]+0.119*[#   9]+0.098*[#  14]+0.071*[#   5]+
          +0.051*[#  17]+0.042*[#  18]+0.042*[#  25]+0.035*[#   2]+0.035*[#   3]+
          +0.032*[#  13]+0.032*[#  22]+0.031*[#  29]+0.031*[#  30]+0.027*[#  15]+
          +0.027*[#  24]+0.024*[#   8]+0.016*[#  32]+0.005*[#  35]+0.004*[#  34]+
          +0.004*[#  36]+0.002*[#  23]+0.001*[#  10]+0.001*[#  19]+0.001*[#  38]+
          +0.001*[#  39]+
    |psi|^2 = 0.999
     e =    10.63046 eV
     psi = 0.192*[#  26]+0.133*[#  14]+0.131*[#   7]+0.131*[#   9]+0.060*[#  17]+
          +0.051*[#  15]+0.051*[#  24]+0.030*[#   2]+0.030*[#   3]+0.028*[#  13]+
          +0.028*[#  22]+0.027*[#  29]+0.027*[#  30]+0.026*[#  35]+0.009*[#  11]+
          +0.009*[#  21]+0.009*[#  32]+0.008*[#  31]+0.003*[#  18]+0.003*[#  25]+
          +0.002*[#  34]+0.002*[#  36]+0.001*[#   6]+0.001*[#  33]+
    |psi|^2 = 0.999
     e =    10.99836 eV
     psi = 0.306*[#   5]+0.186*[#  18]+0.186*[#  25]+0.102*[#   8]+0.057*[#  26]+
          +0.042*[#  14]+0.029*[#   7]+0.029*[#   9]+0.023*[#  15]+0.023*[#  24]+
          +0.016*[#  17]+
    |psi|^2 = 1.000
     e =    11.08033 eV
     psi = 0.225*[#  35]+0.139*[#  11]+0.139*[#  21]+0.108*[#  31]+0.075*[#  32]+
          +0.048*[#  16]+0.048*[#  27]+0.018*[#   7]+0.018*[#   9]+0.017*[#   2]+
          +0.017*[#   3]+0.015*[#  15]+0.015*[#  24]+0.014*[#  13]+0.014*[#  22]+
          +0.014*[#  29]+0.014*[#  30]+0.009*[#  28]+0.006*[#  34]+0.006*[#  36]+
          +0.004*[#  17]+0.004*[#   6]+0.004*[#  23]+0.004*[#  10]+0.004*[#  19]+
          +0.004*[#  38]+0.004*[#  39]+0.003*[#  18]+0.003*[#  25]+
    |psi|^2 = 0.998
     e =    11.32192 eV
     psi = 0.284*[#  33]+0.152*[#  34]+0.152*[#  36]+0.089*[#  18]+0.089*[#  25]+
          +0.050*[#  15]+0.050*[#  24]+0.032*[#   7]+0.032*[#   9]+0.011*[#   8]+
          +0.009*[#   1]+0.008*[#  40]+0.007*[#  17]+0.005*[#  23]+0.005*[#  35]+
          +0.004*[#   5]+0.004*[#  10]+0.004*[#  19]+0.003*[#  37]+0.003*[#  38]+
          +0.003*[#  39]+0.002*[#  26]+0.002*[#  32]+
    |psi|^2 = 1.000
     e =    11.34863 eV
     psi = 0.300*[#  34]+0.300*[#  36]+0.094*[#  15]+0.094*[#  24]+0.081*[#   7]+
          +0.081*[#   9]+0.009*[#  23]+0.009*[#  17]+0.008*[#  10]+0.008*[#  19]+
          +0.006*[#  38]+0.006*[#  39]+0.003*[#  32]+
    |psi|^2 = 1.000
     e =    11.35670 eV
     psi = 0.289*[#  33]+0.148*[#  34]+0.148*[#  36]+0.091*[#  18]+0.091*[#  25]+
          +0.047*[#  15]+0.047*[#  24]+0.043*[#   7]+0.043*[#   9]+0.011*[#   8]+
          +0.008*[#   1]+0.006*[#  40]+0.004*[#  23]+0.004*[#  10]+0.004*[#  17]+
          +0.004*[#  19]+0.004*[#   5]+0.003*[#  38]+0.003*[#  39]+0.001*[#  35]+
    |psi|^2 = 1.000
     e =    11.58771 eV
     psi = 0.431*[#  32]+0.144*[#  35]+0.091*[#  16]+0.091*[#  27]+0.031*[#  15]+
          +0.031*[#  24]+0.028*[#  14]+0.027*[#  26]+0.016*[#   2]+0.016*[#   3]+
          +0.015*[#  29]+0.015*[#  30]+0.014*[#  13]+0.014*[#  22]+0.007*[#   5]+
          +0.004*[#  18]+0.004*[#  25]+0.003*[#  34]+0.003*[#  36]+0.002*[#   8]+
          +0.002*[#  23]+0.002*[#  10]+0.002*[#  19]+0.002*[#  38]+0.002*[#  39]+
          +0.002*[#  17]+0.001*[#   7]+0.001*[#   9]+
    |psi|^2 = 0.999
     e =    11.66873 eV
     psi = 0.183*[#  35]+0.082*[#   6]+0.065*[#  14]+0.061*[#  32]+0.059*[#  15]+
          +0.059*[#  24]+0.054*[#  26]+0.051*[#   2]+0.051*[#   3]+0.047*[#  29]+
          +0.047*[#  30]+0.045*[#  13]+0.045*[#  22]+0.031*[#  34]+0.031*[#  36]+
          +0.012*[#  23]+0.011*[#  33]+0.005*[#  38]+0.005*[#  39]+0.005*[#  10]+
          +0.005*[#  19]+0.004*[#  18]+0.004*[#  25]+0.004*[#  16]+0.004*[#  27]+
          +0.004*[#   7]+0.004*[#   9]+0.003*[#   8]+0.003*[#  28]+0.002*[#  40]+
          +0.002*[#  11]+0.002*[#  21]+0.002*[#   1]+0.001*[#  31]+0.001*[#   5]+
    |psi|^2 = 0.998
     e =    12.03859 eV
     psi = 0.119*[#  32]+0.071*[#   2]+0.071*[#   3]+0.066*[#  29]+0.066*[#  30]+
          +0.064*[#  15]+0.064*[#  24]+0.059*[#  13]+0.059*[#  22]+0.052*[#  14]+
          +0.040*[#  35]+0.037*[#  34]+0.037*[#  36]+0.031*[#  16]+0.031*[#  27]+
          +0.031*[#  26]+0.024*[#  23]+0.013*[#  38]+0.013*[#  39]+0.012*[#  10]+
          +0.012*[#  19]+0.009*[#   5]+0.005*[#  18]+0.005*[#  25]+0.003*[#   8]+
          +0.002*[#  17]+
    |psi|^2 = 0.998
     e =    12.60724 eV
     psi = 0.156*[#  11]+0.156*[#  21]+0.143*[#  35]+0.122*[#  31]+0.101*[#   6]+
          +0.048*[#  32]+0.025*[#  29]+0.025*[#  30]+0.023*[#  13]+0.023*[#  22]+
          +0.021*[#   2]+0.021*[#   3]+0.014*[#  26]+0.013*[#  14]+0.013*[#  33]+
          +0.013*[#  28]+0.011*[#  15]+0.011*[#  24]+0.009*[#  40]+0.009*[#   8]+
          +0.008*[#  18]+0.008*[#  25]+0.006*[#   1]+0.003*[#   7]+0.003*[#   9]+
          +0.003*[#   5]+0.002*[#  16]+0.002*[#  27]+0.001*[#  17]+
    |psi|^2 = 0.997
     e =    13.44133 eV
     psi = 0.193*[#  40]+0.149*[#   8]+0.129*[#  33]+0.092*[#   1]+0.089*[#  18]+
          +0.089*[#  25]+0.050*[#   5]+0.021*[#  23]+0.019*[#  38]+0.019*[#  39]+
          +0.014*[#  17]+0.013*[#  34]+0.013*[#  36]+0.011*[#  15]+0.011*[#  24]+
          +0.010*[#  10]+0.010*[#  19]+0.009*[#  11]+0.009*[#  21]+0.008*[#  14]+
          +0.007*[#   7]+0.007*[#   9]+0.006*[#  31]+0.002*[#   6]+0.002*[#   2]+
          +0.002*[#   3]+0.002*[#  12]+0.002*[#  20]+0.002*[#   4]+0.002*[#  28]+
          +0.002*[#  35]+
    |psi|^2 = 0.997
     e =    14.17790 eV
     psi = 0.103*[#  38]+0.103*[#  39]+0.097*[#  23]+0.086*[#  17]+0.058*[#  13]+
          +0.058*[#  22]+0.045*[#  10]+0.045*[#  19]+0.044*[#   2]+0.044*[#   3]+
          +0.043*[#  34]+0.043*[#  36]+0.041*[#   7]+0.041*[#   9]+0.040*[#  29]+
          +0.040*[#  30]+0.023*[#  15]+0.023*[#  24]+0.013*[#  14]+0.002*[#  26]+
          +0.001*[#  32]+
    |psi|^2 = 0.995
     e =    14.23283 eV
     psi = 0.089*[#  38]+0.089*[#  39]+0.083*[#  23]+0.073*[#  17]+0.051*[#  13]+
          +0.051*[#  22]+0.040*[#   2]+0.040*[#   3]+0.040*[#  10]+0.040*[#  19]+
          +0.036*[#  34]+0.036*[#  36]+0.034*[#  40]+0.033*[#   7]+0.033*[#   9]+
          +0.031*[#  29]+0.031*[#  30]+0.022*[#   8]+0.020*[#  28]+0.019*[#  15]+
          +0.019*[#  24]+0.014*[#  33]+0.013*[#   1]+0.012*[#  14]+0.010*[#  18]+
          +0.010*[#  25]+0.007*[#   5]+0.004*[#  16]+0.004*[#  27]+0.003*[#   6]+
          +0.002*[#  11]+0.002*[#  21]+0.002*[#  26]+
    |psi|^2 = 0.995
     e =    17.04199 eV
     psi = 0.740*[#  28]+0.068*[#  31]+0.044*[#  16]+0.044*[#  27]+0.037*[#   6]+
          +0.010*[#  11]+0.010*[#  21]+0.008*[#  29]+0.008*[#  30]+0.003*[#  38]+
          +0.003*[#  39]+0.002*[#  23]+0.001*[#  13]+0.001*[#  22]+0.001*[#   2]+
          +0.001*[#   3]+0.001*[#  17]+
    |psi|^2 = 0.986
     e =    20.73619 eV
     psi = 0.458*[#   1]+0.153*[#  40]+0.099*[#  37]+0.042*[#  12]+0.042*[#  20]+
          +0.041*[#   4]+0.036*[#   8]+0.019*[#  33]+0.016*[#  10]+0.016*[#  19]+
          +0.012*[#   5]+0.006*[#  38]+0.006*[#  39]+0.003*[#  23]+0.002*[#   2]+
          +0.002*[#   3]+0.002*[#  17]+0.002*[#  13]+0.002*[#  22]+0.001*[#  29]+
          +0.001*[#  30]+
    |psi|^2 = 0.966
     e =    21.62741 eV
     psi = 0.278*[#  10]+0.278*[#  19]+0.096*[#  38]+0.096*[#  39]+0.073*[#   1]+
          +0.026*[#  23]+0.022*[#  40]+0.019*[#  17]+0.014*[#  13]+0.014*[#  22]+
          +0.007*[#  34]+0.007*[#  36]+0.007*[#  14]+0.003*[#   8]+0.003*[#  37]+
          +0.002*[#  29]+0.002*[#  30]+0.002*[#   4]+0.001*[#  33]+0.001*[#   5]+
          +0.001*[#  11]+0.001*[#  12]+0.001*[#  20]+0.001*[#  21]+0.001*[#  28]+
    |psi|^2 = 0.961

Lowdin Charges: 

     Atom #   1: total charge =  10.8111, s =  0.3175, p =  0.9811, d =  9.5125, 
                 spin up      =   5.4055, s =  0.1587, p =  0.4906, d =  4.7563, 
                 spin down    =   5.4055, s =  0.1587, p =  0.4906, d =  4.7563, 
                 polarization =   0.0000, s = -0.0000, p = -0.0000, d =  0.0000, 
     Atom #   2: total charge =  10.8109, s =  0.3175, p =  0.9811, d =  9.5123, 
                 spin up      =   5.4055, s =  0.1588, p =  0.4905, d =  4.7561, 
                 spin down    =   5.4055, s =  0.1588, p =  0.4905, d =  4.7561, 
                 polarization =   0.0000, s = -0.0000, p = -0.0000, d =  0.0000, 
     Atom #   3: total charge =  10.8109, s =  0.3175, p =  0.9811, d =  9.5123, 
                 spin up      =   5.4055, s =  0.1588, p =  0.4905, d =  4.7561, 
                 spin down    =   5.4055, s =  0.1588, p =  0.4905, d =  4.7561, 
                 polarization =   0.0000, s = -0.0000, p = -0.0000, d =  0.0000, 
     Atom #   4: total charge =  10.9717, s =  0.3739, p =  0.8775, d =  9.7202, 
                 spin up      =   5.4858, s =  0.1870, p =  0.4388, d =  4.8601, 
                 spin down    =   5.4858, s =  0.1870, p =  0.4388, d =  4.8601, 
                 polarization =  -0.0000, s =  0.0000, p = -0.0000, d =  0.0000, 
     Atom #   5: total charge =   5.5474, s =  1.3451, p =  4.2023, d =  0.0000, 
                 spin up      =   2.7737, s =  0.6726, p =  2.1012, d =  0.0000, 
                 spin down    =   2.7737, s =  0.6725, p =  2.1012, d =  0.0000, 
                 polarization =   0.0000, s =  0.0000, p =  0.0000, d =  0.0000, 
     Spilling Parameter:   0.0010

     PROJWFC      :     9.95s CPU        26.98s WALL


   This run was terminated on:   1:47:13  24Apr2020            

=------------------------------------------------------------------------------=
   JOB DONE.
=------------------------------------------------------------------------------=
