--------------------------------------------------------------------------
WARNING: Linux kernel CMA support was requested via the
btl_vader_single_copy_mechanism MCA variable, but CMA support is
not available due to restrictive ptrace settings.

The vader shared memory BTL will fall back on another single-copy
mechanism if one is available. This may result in lower performance.

  Local host: Rijuki
--------------------------------------------------------------------------

     Program Q2R v.6.0 (svn rev. 13079) starts on 22Apr2020 at 21:32: 5 

     This program is part of the open-source Quantum ESPRESSO suite
     for quantum simulation of materials; please cite
         "P. Giannozzi et al., J. Phys.:Condens. Matter 21 395502 (2009);
          URL http://www.quantum-espresso.org", 
     in publications or presentations arising from this work. More details at
     http://www.quantum-espresso.org/quote

     Parallel version (MPI), running on    15 processors
     R & G space division:  proc/nbgrp/npool/nimage =      15

     reading grid info from file Cu2N.dyn0    
  reading force constants from file Cu2N.dyn1
  Dielectric Tensor not found
  nqs=            1
 q=   0.00000000  0.00000000  0.00000000
  reading force constants from file Cu2N.dyn2
  nqs=            3
 q=   0.00000000  0.00000000 -0.50000000
 q=   0.00000000 -0.50000000  0.00000000
 q=  -0.50000000  0.00000000  0.00000000
  reading force constants from file Cu2N.dyn3
  nqs=            3
 q=   0.00000000 -0.50000000 -0.50000000
 q=  -0.50000000 -0.50000000  0.00000000
 q=  -0.50000000  0.00000000 -0.50000000
  reading force constants from file Cu2N.dyn4
  nqs=            1
 q=  -0.50000000 -0.50000000 -0.50000000

      q-space grid ok, #points =    8

      fft-check success (sum of imaginary terms < 10^-12)

     Q2R          :     0.03s CPU         0.09s WALL


   This run was terminated on:  21:32: 5  22Apr2020            

=------------------------------------------------------------------------------=
   JOB DONE.
=------------------------------------------------------------------------------=
