### Running on host: Rijuki

     Program POST-PROC v.6.0 (svn rev. 13079) starts on 23Jun2020 at 14:47:49 

     This program is part of the open-source Quantum ESPRESSO suite
     for quantum simulation of materials; please cite
         "P. Giannozzi et al., J. Phys.:Condens. Matter 21 395502 (2009);
          URL http://www.quantum-espresso.org", 
     in publications or presentations arising from this work. More details at
     http://www.quantum-espresso.org/quote

     Parallel version (MPI), running on     1 processors

     Reading data from directory:
     ./tmp/Cu2N.save

   Info: using nr1, nr2, nr3 values from input

   Info: using nr1, nr2, nr3 values from input

     IMPORTANT: XC functional enforced from input :
     Exchange-correlation      =  SLA  PW   PBX  PBC ( 1  4  3  4 0 0)
     Any further DFT definition will be discarded
     Please, verify this is what you really want

               file Cu.pbe-dn-kjpaw_psl.1.0.0.UPF: wavefunction(s)  4S 3D renormalized
               file N.pbe-n-kjpaw_psl.1.0.0.UPF: wavefunction(s)  2S renormalized

     G-vector sticks info
     --------------------
     sticks:   dense  smooth     PW     G-vecs:    dense   smooth      PW
     Sum         633     633    185                11837    11837    1935

     Generating pointlists ...
     new r_m :   0.2062 (alat units)  1.4499 (a.u.) for type    1
     new r_m :   0.2062 (alat units)  1.4499 (a.u.) for type    2

     Check: negative/imaginary core charge=   -0.000013    0.000000

     Calling punch_plot, plot_num =   5
     Use the true wfcs
     Sample bias          = -1.3606 eV

     STM:      0.02s cpu time
     Writing data to file  Cu2N.pp
     Reading data from file  Cu2N.pp

     Writing data to be plotted to file pwtk.-0.1.dat
     Min, Max, imaginary charge:     0.000214    0.016362    0.000000
     Plot Type: 2D contour             Output format: plotrho.x    

     POST-PROC    :     3.28s CPU         3.64s WALL


   This run was terminated on:  14:47:53  23Jun2020            

=------------------------------------------------------------------------------=
   JOB DONE.
=------------------------------------------------------------------------------=
