
     Program PWSCF v.6.0 (svn rev. 13079) starts on 23Jun2020 at 14:40: 8 

     This program is part of the open-source Quantum ESPRESSO suite
     for quantum simulation of materials; please cite
         "P. Giannozzi et al., J. Phys.:Condens. Matter 21 395502 (2009);
          URL http://www.quantum-espresso.org", 
     in publications or presentations arising from this work. More details at
     http://www.quantum-espresso.org/quote

     Parallel version (MPI), running on     1 processors
     Waiting for input...
     Reading input from standard input

     Current dimensions of program PWSCF are:
     Max number of different atomic species (ntypx) = 10
     Max number of k-points (npk) =  40000
     Max angular momentum in pseudopotentials (lmaxx) =  3
               file Cu.pbe-dn-kjpaw_psl.1.0.0.UPF: wavefunction(s)  4S 3D renormalized
               file N.pbe-n-kjpaw_psl.1.0.0.UPF: wavefunction(s)  2S renormalized

     Subspace diagonalization in iterative solution of the eigenvalue problem:
     a serial algorithm will be used


     G-vector sticks info
     --------------------
     sticks:   dense  smooth     PW     G-vecs:    dense   smooth      PW
     Sum         633     633    185                11837    11837    1935



     bravais-lattice index     =            0
     lattice parameter (alat)  =       7.0298  a.u.
     unit-cell volume          =     347.3965 (a.u.)^3
     number of atoms/cell      =            5
     number of atomic types    =            2
     number of electrons       =        49.00
     number of Kohn-Sham states=           30
     kinetic-energy cutoff     =      40.0000  Ry
     charge density cutoff     =     160.0000  Ry
     convergence threshold     =      1.0E-10
     mixing beta               =       0.7000
     number of iterations used =            8  plain     mixing
     Exchange-correlation      =  SLA  PW   PBX  PBC ( 1  4  3  4 0 0)

     celldm(1)=   7.029781  celldm(2)=   0.000000  celldm(3)=   0.000000
     celldm(4)=   0.000000  celldm(5)=   0.000000  celldm(6)=   0.000000

     crystal axes: (cart. coord. in units of alat)
               a(1) = (   1.000000   0.000000   0.000000 )  
               a(2) = (   0.000000   1.000000   0.000000 )  
               a(3) = (   0.000000   0.000000   1.000000 )  

     reciprocal axes: (cart. coord. in units 2 pi/alat)
               b(1) = (  1.000000  0.000000  0.000000 )  
               b(2) = (  0.000000  1.000000  0.000000 )  
               b(3) = (  0.000000  0.000000  1.000000 )  


     PseudoPot. # 1 for Cu read from file:
     ../pseudo/Cu.pbe-dn-kjpaw_psl.1.0.0.UPF
     MD5 check sum: cfffd1f38ee05704b3e17f46f1730a6f
     Pseudo is Projector augmented-wave + core cor, Zval = 11.0
     Generated using "atomic" code by A. Dal Corso  v.6.3
     Shape of augmentation charge: PSQ
     Using radial grid of 1199 points,  6 beta functions with: 
                l(1) =   0
                l(2) =   0
                l(3) =   1
                l(4) =   1
                l(5) =   2
                l(6) =   2
     Q(r) pseudized with 0 coefficients 


     PseudoPot. # 2 for  N read from file:
     ../pseudo/N.pbe-n-kjpaw_psl.1.0.0.UPF
     MD5 check sum: 14c48229446f9f2d411169a3abcbc3fa
     Pseudo is Projector augmented-wave + core cor, Zval =  5.0
     Generated using "atomic" code by A. Dal Corso  v.6.3
     Shape of augmentation charge: PSQ
     Using radial grid of 1085 points,  4 beta functions with: 
                l(1) =   0
                l(2) =   0
                l(3) =   1
                l(4) =   1
     Q(r) pseudized with 0 coefficients 


     atomic species   valence    mass     pseudopotential
        Cu            11.00    63.54600     Cu( 1.00)
        N              5.00    14.00700      N( 1.00)

     Starting magnetic structure 
     atomic species   magnetization
        Cu           0.000
        N            0.000

     48 Sym. Ops., with inversion, found (32 have fractional translation)



   Cartesian axes

     site n.     atom                  positions (alat units)
         1           Cu  tau(   1) = (   0.0000000   0.0000000   0.0000000  )
         2           Cu  tau(   2) = (   0.5000000   0.5000000   0.0000000  )
         3           Cu  tau(   3) = (   0.0000000   0.5000000   0.5000000  )
         4           Cu  tau(   4) = (   0.5000000   0.0000000   0.5000000  )
         5           N   tau(   5) = (   0.0000000   0.5000000   1.0000000  )

     number of k points=     4  gaussian smearing, width (Ry)=  0.0200
                       cart. coord. in units 2pi/alat
        k(    1) = (   0.1250000   0.1250000   0.1250000), wk =   0.1250000
        k(    2) = (   0.1250000   0.1250000   0.3750000), wk =   0.3750000
        k(    3) = (   0.1250000   0.3750000   0.3750000), wk =   0.3750000
        k(    4) = (   0.3750000   0.3750000   0.3750000), wk =   0.1250000

     Dense  grid:    11837 G-vectors     FFT dimensions: (  30,  30,  30)

     Estimated max dynamical RAM per process >      25.25Mb
     Generating pointlists ...
     new r_m :   0.2062 (alat units)  1.4499 (a.u.) for type    1
     new r_m :   0.2062 (alat units)  1.4499 (a.u.) for type    2

     Check: negative/imaginary core charge=   -0.000013    0.000000

     Initial potential from superposition of free atoms

     starting charge   48.99908, renormalised to   49.00000
     Starting wfc are   40 randomized atomic wfcs
     Checking if some PAW data can be deallocated... 

     total cpu time spent up to now is        4.0 secs

     per-process dynamical memory:    28.6 Mb

     Self-consistent Calculation

     iteration #  1     ecut=    40.00 Ry     beta=0.70
     Davidson diagonalization with overlap
     ethr =  1.00E-02,  avg # of iterations =  2.9

     total cpu time spent up to now is        7.7 secs

     total energy              =    -879.97834035 Ry
     Harris-Foulkes estimate   =    -880.60834764 Ry
     estimated scf accuracy    <       0.76621619 Ry

     total magnetization       =     0.00 Bohr mag/cell
     absolute magnetization    =     0.01 Bohr mag/cell

     iteration #  2     ecut=    40.00 Ry     beta=0.70
     Davidson diagonalization with overlap
     ethr =  1.56E-03,  avg # of iterations =  2.4

     total cpu time spent up to now is       11.3 secs

     total energy              =    -879.99249591 Ry
     Harris-Foulkes estimate   =    -881.09429834 Ry
     estimated scf accuracy    <       2.83678989 Ry

     total magnetization       =     0.00 Bohr mag/cell
     absolute magnetization    =     0.00 Bohr mag/cell

     iteration #  3     ecut=    40.00 Ry     beta=0.70
     Davidson diagonalization with overlap
     ethr =  1.56E-03,  avg # of iterations =  2.2

     total cpu time spent up to now is       15.0 secs

     total energy              =    -880.44059242 Ry
     Harris-Foulkes estimate   =    -880.45106921 Ry
     estimated scf accuracy    <       0.02067403 Ry

     total magnetization       =     0.00 Bohr mag/cell
     absolute magnetization    =     0.00 Bohr mag/cell

     iteration #  4     ecut=    40.00 Ry     beta=0.70
     Davidson diagonalization with overlap
     ethr =  4.22E-05,  avg # of iterations =  2.5

     total cpu time spent up to now is       18.4 secs

     total energy              =    -880.44356777 Ry
     Harris-Foulkes estimate   =    -880.45122515 Ry
     estimated scf accuracy    <       0.02609004 Ry

     total magnetization       =     0.00 Bohr mag/cell
     absolute magnetization    =     0.00 Bohr mag/cell

     iteration #  5     ecut=    40.00 Ry     beta=0.70
     Davidson diagonalization with overlap
     ethr =  4.22E-05,  avg # of iterations =  2.0

     total cpu time spent up to now is       21.7 secs

     total energy              =    -880.44709948 Ry
     Harris-Foulkes estimate   =    -880.44754739 Ry
     estimated scf accuracy    <       0.00090142 Ry

     total magnetization       =     0.00 Bohr mag/cell
     absolute magnetization    =     0.00 Bohr mag/cell

     iteration #  6     ecut=    40.00 Ry     beta=0.70
     Davidson diagonalization with overlap
     ethr =  1.84E-06,  avg # of iterations =  3.0

     total cpu time spent up to now is       25.2 secs

     total energy              =    -880.44732455 Ry
     Harris-Foulkes estimate   =    -880.44752223 Ry
     estimated scf accuracy    <       0.00054306 Ry

     total magnetization       =     0.00 Bohr mag/cell
     absolute magnetization    =     0.00 Bohr mag/cell

     iteration #  7     ecut=    40.00 Ry     beta=0.70
     Davidson diagonalization with overlap
     ethr =  1.11E-06,  avg # of iterations =  2.0

     total cpu time spent up to now is       28.4 secs

     total energy              =    -880.44739694 Ry
     Harris-Foulkes estimate   =    -880.44740079 Ry
     estimated scf accuracy    <       0.00001034 Ry

     total magnetization       =     0.00 Bohr mag/cell
     absolute magnetization    =     0.00 Bohr mag/cell

     iteration #  8     ecut=    40.00 Ry     beta=0.70
     Davidson diagonalization with overlap
     ethr =  2.11E-08,  avg # of iterations =  3.0

     total cpu time spent up to now is       31.7 secs

     total energy              =    -880.44739971 Ry
     Harris-Foulkes estimate   =    -880.44739980 Ry
     estimated scf accuracy    <       0.00000039 Ry

     total magnetization       =     0.00 Bohr mag/cell
     absolute magnetization    =     0.00 Bohr mag/cell

     iteration #  9     ecut=    40.00 Ry     beta=0.70
     Davidson diagonalization with overlap
     ethr =  8.05E-10,  avg # of iterations =  2.0

     total cpu time spent up to now is       34.9 secs

     total energy              =    -880.44739972 Ry
     Harris-Foulkes estimate   =    -880.44739975 Ry
     estimated scf accuracy    <       0.00000008 Ry

     total magnetization       =     0.00 Bohr mag/cell
     absolute magnetization    =     0.00 Bohr mag/cell

     iteration # 10     ecut=    40.00 Ry     beta=0.70
     Davidson diagonalization with overlap
     ethr =  1.54E-10,  avg # of iterations =  1.9

     total cpu time spent up to now is       38.3 secs

     total energy              =    -880.44739973 Ry
     Harris-Foulkes estimate   =    -880.44739973 Ry
     estimated scf accuracy    <          9.8E-10 Ry

     total magnetization       =     0.00 Bohr mag/cell
     absolute magnetization    =     0.00 Bohr mag/cell

     iteration # 11     ecut=    40.00 Ry     beta=0.70
     Davidson diagonalization with overlap
     ethr =  1.99E-12,  avg # of iterations =  3.0

     total cpu time spent up to now is       41.9 secs

     total energy              =    -880.44739973 Ry
     Harris-Foulkes estimate   =    -880.44739973 Ry
     estimated scf accuracy    <          1.4E-10 Ry

     total magnetization       =     0.00 Bohr mag/cell
     absolute magnetization    =     0.00 Bohr mag/cell

     iteration # 12     ecut=    40.00 Ry     beta=0.70
     Davidson diagonalization with overlap
     ethr =  2.82E-13,  avg # of iterations =  2.0

     Magnetic moment per site:
     atom:    1    charge:    8.3602    magn:    0.0000    constr:    0.0000
     atom:    2    charge:    8.3602    magn:    0.0000    constr:    0.0000
     atom:    3    charge:    8.3602    magn:    0.0000    constr:    0.0000
     atom:    4    charge:    8.3839    magn:    0.0000    constr:    0.0000
     atom:    5    charge:    4.0689    magn:    0.0000    constr:    0.0000

     total cpu time spent up to now is       45.4 secs

     End of self-consistent calculation

 ------ SPIN UP ------------


          k = 0.1250 0.1250 0.1250 (  1466 PWs)   bands (ev):

    -4.2062   5.8845   6.9926   6.9926   7.4091   8.7683   8.7683   8.8324
     8.8324   9.0514  10.0375  10.1840  10.1840  10.3790  10.3790  10.9273
    11.1701  11.3387  11.3387  11.6166  11.6166  11.6888  11.8965  11.8965
    14.2709  16.9840  16.9840  17.1851  20.7991  20.7991

          k = 0.1250 0.1250 0.3750 (  1487 PWs)   bands (ev):

    -3.8456   4.9527   6.5923   6.6131   7.5898   8.6952   9.0221   9.2756
     9.2977   9.3292   9.8000  10.1103  10.1753  10.3919  10.4376  10.7120
    11.0035  11.2596  11.3344  11.4326  11.5254  11.6492  11.8375  12.0841
    14.8478  15.2593  17.0124  18.6709  20.1690  21.6420

          k = 0.1250 0.3750 0.3750 (  1488 PWs)   bands (ev):

    -3.4846   5.0135   5.0619   6.3653   8.1131   9.1137   9.1191   9.4351
     9.5204   9.5814   9.7833   9.8977   9.9311  10.3470  10.4076  10.5776
    10.8481  11.3153  11.3414  11.3986  11.4861  11.6127  11.9311  12.5629
    13.6570  16.0591  16.5510  18.4459  19.8853  21.6280

          k = 0.3750 0.3750 0.3750 (  1487 PWs)   bands (ev):

    -3.1123   4.9185   4.9185   4.9664   8.2723   9.0857   9.2880   9.2880
     9.7955   9.7955  10.0039  10.2513  10.2513  10.4123  10.4123  10.5682
    11.1065  11.3158  11.3914  11.3914  11.5198  11.5198  12.5846  12.5846
    14.3212  14.3212  14.5096  17.8605  20.2640  21.2666

 ------ SPIN DOWN ----------


          k = 0.1250 0.1250 0.1250 (  1466 PWs)   bands (ev):

    -4.2062   5.8845   6.9926   6.9926   7.4091   8.7683   8.7683   8.8324
     8.8324   9.0514  10.0375  10.1840  10.1840  10.3790  10.3790  10.9273
    11.1701  11.3387  11.3387  11.6166  11.6166  11.6888  11.8965  11.8965
    14.2709  16.9840  16.9840  17.1851  20.7991  20.7991

          k = 0.1250 0.1250 0.3750 (  1487 PWs)   bands (ev):

    -3.8456   4.9527   6.5923   6.6131   7.5898   8.6952   9.0221   9.2756
     9.2977   9.3292   9.8000  10.1103  10.1753  10.3919  10.4376  10.7120
    11.0035  11.2596  11.3344  11.4326  11.5254  11.6492  11.8375  12.0841
    14.8478  15.2593  17.0124  18.6709  20.1690  21.6420

          k = 0.1250 0.3750 0.3750 (  1488 PWs)   bands (ev):

    -3.4846   5.0135   5.0619   6.3653   8.1131   9.1137   9.1191   9.4351
     9.5204   9.5814   9.7833   9.8977   9.9311  10.3470  10.4076  10.5776
    10.8481  11.3153  11.3414  11.3986  11.4861  11.6127  11.9311  12.5629
    13.6570  16.0591  16.5510  18.4459  19.8853  21.6280

          k = 0.3750 0.3750 0.3750 (  1487 PWs)   bands (ev):

    -3.1123   4.9185   4.9185   4.9664   8.2723   9.0857   9.2880   9.2880
     9.7955   9.7955  10.0039  10.2513  10.2513  10.4123  10.4123  10.5682
    11.1065  11.3158  11.3915  11.3915  11.5198  11.5198  12.5846  12.5846
    14.3212  14.3212  14.5096  17.8605  20.2640  21.2666

     the Fermi energy is    14.2110 ev

!    total energy              =    -880.44739973 Ry
     Harris-Foulkes estimate   =    -880.44739973 Ry
     estimated scf accuracy    <          1.9E-11 Ry

     total all-electron energy =    -13349.265262 Ry

     The total energy is the sum of the following terms:

     one-electron contribution =    -114.01290559 Ry
     hartree contribution      =     128.30573350 Ry
     xc contribution           =    -184.53493470 Ry
     ewald contribution        =    -342.80957328 Ry
     one-center paw contrib.   =    -367.39147446 Ry
     smearing contrib. (-TS)   =      -0.00424521 Ry

     total magnetization       =     0.00 Bohr mag/cell
     absolute magnetization    =     0.00 Bohr mag/cell

     convergence has been achieved in  12 iterations

     Writing output data file Cu2N.save

     init_run     :      3.42s CPU      3.66s WALL (       1 calls)
     electrons    :     41.22s CPU     41.40s WALL (       1 calls)

     Called by init_run:
     wfcinit      :      0.62s CPU      0.63s WALL (       1 calls)
     potinit      :      2.23s CPU      2.41s WALL (       1 calls)

     Called by electrons:
     c_bands      :     14.33s CPU     14.42s WALL (      12 calls)
     sum_band     :      2.70s CPU      2.79s WALL (      12 calls)
     v_of_rho     :      0.55s CPU      0.55s WALL (      13 calls)
     newd         :      0.86s CPU      0.90s WALL (      13 calls)
     PAW_pot      :     24.97s CPU     25.14s WALL (      13 calls)
     mix_rho      :      0.06s CPU      0.05s WALL (      12 calls)

     Called by c_bands:
     init_us_2    :      0.20s CPU      0.14s WALL (     200 calls)
     cegterg      :     13.95s CPU     14.02s WALL (      96 calls)

     Called by sum_band:
     sum_band:bec :      0.02s CPU      0.01s WALL (      96 calls)
     addusdens    :      0.67s CPU      0.70s WALL (      12 calls)

     Called by *egterg:
     h_psi        :      9.81s CPU      9.70s WALL (     335 calls)
     s_psi        :      1.11s CPU      1.30s WALL (     335 calls)
     g_psi        :      0.00s CPU      0.02s WALL (     231 calls)
     cdiaghg      :      0.56s CPU      0.60s WALL (     327 calls)

     Called by h_psi:
     h_psi:pot    :      9.78s CPU      9.67s WALL (     335 calls)
     h_psi:calbec :      1.25s CPU      1.33s WALL (     335 calls)
     vloc_psi     :      6.98s CPU      7.04s WALL (     335 calls)
     add_vuspsi   :      1.55s CPU      1.29s WALL (     335 calls)

     General routines
     calbec       :      1.83s CPU      1.84s WALL (     431 calls)
     fft          :      0.12s CPU      0.16s WALL (     321 calls)
     fftw         :      7.88s CPU      7.97s WALL (   17860 calls)
     davcio       :      0.00s CPU      0.01s WALL (       8 calls)

     Parallel routines
     fft_scatter  :      0.19s CPU      0.22s WALL (   18181 calls)

     PWSCF        :    44.98s CPU        45.59s WALL


   This run was terminated on:  14:40:54  23Jun2020            

=------------------------------------------------------------------------------=
   JOB DONE.
=------------------------------------------------------------------------------=
