[Molden Format]
[FREQ]
    0.00
    0.00
    0.00
   98.81
   99.64
  104.44
  150.65
  150.87
  156.15
  188.38
  188.44
  192.35
  717.72
  724.72
  772.50
[FR-COORD]
   Cu          0.00000        0.00000        0.00000
   Cu          3.50275        3.50231        0.00000
   Cu          0.00000        3.50231        3.32703
   Cu          3.50275        0.00000        3.32617
   N           0.00000        3.50231        6.98894
[FR-NORM-COORD]
 vibration     1
  -0.00042   0.00396   0.44720
  -0.00042   0.00396   0.44720
  -0.00042   0.00396   0.44720
  -0.00042   0.00396   0.44720
  -0.00042   0.00396   0.44720
 vibration     2
  -0.02142  -0.44668   0.00393
  -0.02142  -0.44668   0.00393
  -0.02142  -0.44668   0.00393
  -0.02142  -0.44668   0.00393
  -0.02142  -0.44668   0.00393
 vibration     3
   0.44670  -0.02142   0.00061
   0.44670  -0.02142   0.00061
   0.44670  -0.02142   0.00061
   0.44670  -0.02142   0.00061
   0.44670  -0.02142   0.00061
 vibration     4
  -0.00000  -0.00047   0.00000
  -0.00000   0.68550  -0.00000
   0.00000  -0.72691  -0.00000
   0.00000   0.03899   0.00000
  -0.00000   0.01311  -0.00000
 vibration     5
   0.68748   0.00000   0.00000
  -0.00465   0.00000  -0.00000
  -0.72502  -0.00000   0.00000
   0.04048  -0.00000  -0.00000
   0.00775   0.00000   0.00000
 vibration     6
  -0.00000  -0.00000   0.70905
   0.00000  -0.00000  -0.70512
  -0.00000   0.00000  -0.00450
  -0.00000   0.00000   0.00183
   0.00000   0.00000  -0.00571
 vibration     7
   0.10155   0.00000   0.00000
  -0.57508  -0.00000  -0.00000
   0.12573  -0.00000   0.00000
   0.48807  -0.00000  -0.00000
  -0.63636   0.00000   0.00000
 vibration     8
  -0.00000   0.57450   0.00000
   0.00000  -0.10039  -0.00000
  -0.00000  -0.11906   0.00000
  -0.00000  -0.49464  -0.00000
   0.00000   0.63327   0.00000
 vibration     9
  -0.00000  -0.00000  -0.07850
   0.00000   0.00000  -0.08506
  -0.00000   0.00000   0.56993
  -0.00000   0.00000  -0.54040
   0.00000  -0.00000   0.60807
 vibration    10
  -0.49683   0.00000  -0.00000
   0.24589  -0.00000  -0.00000
  -0.43781  -0.00000   0.00000
   0.60938   0.00000   0.00000
   0.36011   0.00000   0.00000
 vibration    11
  -0.00000  -0.25267  -0.00000
   0.00000   0.49895  -0.00000
  -0.00000   0.43690   0.00000
   0.00000  -0.60280   0.00000
   0.00000  -0.36464   0.00000
 vibration    12
  -0.00000  -0.00000   0.46995
   0.00000   0.00000   0.47373
  -0.00000   0.00000  -0.30016
   0.00000  -0.00000  -0.55688
   0.00000  -0.00000  -0.39308
 vibration    13
   0.01395   0.00000   0.00000
  -0.23715  -0.00000   0.00000
   0.01662  -0.00000  -0.00000
  -0.00750   0.00000  -0.00000
   0.97120   0.00000  -0.00000
 vibration    14
   0.00000  -0.23659  -0.00000
  -0.00000   0.01349   0.00000
  -0.00000   0.01634   0.00000
   0.00000  -0.00734  -0.00000
   0.00000   0.97135   0.00000
 vibration    15
   0.00000  -0.00000   0.01193
  -0.00000   0.00000   0.01172
   0.00000   0.00000  -0.23153
  -0.00000  -0.00000  -0.00651
   0.00000   0.00000   0.97266
