ANIMSTEPS  15
CRYSTAL
PRIMVEC
    3.707149083    0.000000000    0.000000000
    0.000000000    3.706688180    0.000000000
    0.000000000    0.000000000    3.707149083
PRIMCOORD  1
      5   1
   Cu     0.00000   0.00000   0.00000  -0.00004   0.00040   0.04472
   Cu     1.85357   1.85334   0.00000  -0.00004   0.00040   0.04472
   Cu     0.00000   1.85334   1.76059  -0.00004   0.00040   0.04472
   Cu     1.85357   0.00000   1.76013  -0.00004   0.00040   0.04472
   N      0.00000   1.85334   3.69839  -0.00004   0.00040   0.04472
PRIMCOORD  2
      5   1
   Cu     0.00000   0.00000   0.00000  -0.00214  -0.04467   0.00039
   Cu     1.85357   1.85334   0.00000  -0.00214  -0.04467   0.00039
   Cu     0.00000   1.85334   1.76059  -0.00214  -0.04467   0.00039
   Cu     1.85357   0.00000   1.76013  -0.00214  -0.04467   0.00039
   N      0.00000   1.85334   3.69839  -0.00214  -0.04467   0.00039
PRIMCOORD  3
      5   1
   Cu     0.00000   0.00000   0.00000   0.04467  -0.00214   0.00006
   Cu     1.85357   1.85334   0.00000   0.04467  -0.00214   0.00006
   Cu     0.00000   1.85334   1.76059   0.04467  -0.00214   0.00006
   Cu     1.85357   0.00000   1.76013   0.04467  -0.00214   0.00006
   N      0.00000   1.85334   3.69839   0.04467  -0.00214   0.00006
PRIMCOORD  4
      5   1
   Cu     0.00000   0.00000   0.00000  -0.00000  -0.00005   0.00000
   Cu     1.85357   1.85334   0.00000  -0.00000   0.06855  -0.00000
   Cu     0.00000   1.85334   1.76059   0.00000  -0.07269  -0.00000
   Cu     1.85357   0.00000   1.76013   0.00000   0.00390   0.00000
   N      0.00000   1.85334   3.69839  -0.00000   0.00131  -0.00000
PRIMCOORD  5
      5   1
   Cu     0.00000   0.00000   0.00000   0.06875   0.00000   0.00000
   Cu     1.85357   1.85334   0.00000  -0.00047   0.00000  -0.00000
   Cu     0.00000   1.85334   1.76059  -0.07250  -0.00000   0.00000
   Cu     1.85357   0.00000   1.76013   0.00405  -0.00000  -0.00000
   N      0.00000   1.85334   3.69839   0.00078   0.00000   0.00000
PRIMCOORD  6
      5   1
   Cu     0.00000   0.00000   0.00000  -0.00000  -0.00000   0.07090
   Cu     1.85357   1.85334   0.00000   0.00000  -0.00000  -0.07051
   Cu     0.00000   1.85334   1.76059  -0.00000   0.00000  -0.00045
   Cu     1.85357   0.00000   1.76013  -0.00000   0.00000   0.00018
   N      0.00000   1.85334   3.69839   0.00000   0.00000  -0.00057
PRIMCOORD  7
      5   1
   Cu     0.00000   0.00000   0.00000   0.01015   0.00000   0.00000
   Cu     1.85357   1.85334   0.00000  -0.05751  -0.00000  -0.00000
   Cu     0.00000   1.85334   1.76059   0.01257  -0.00000   0.00000
   Cu     1.85357   0.00000   1.76013   0.04881  -0.00000  -0.00000
   N      0.00000   1.85334   3.69839  -0.06364   0.00000   0.00000
PRIMCOORD  8
      5   1
   Cu     0.00000   0.00000   0.00000  -0.00000   0.05745   0.00000
   Cu     1.85357   1.85334   0.00000   0.00000  -0.01004  -0.00000
   Cu     0.00000   1.85334   1.76059  -0.00000  -0.01191   0.00000
   Cu     1.85357   0.00000   1.76013  -0.00000  -0.04946  -0.00000
   N      0.00000   1.85334   3.69839   0.00000   0.06333   0.00000
PRIMCOORD  9
      5   1
   Cu     0.00000   0.00000   0.00000  -0.00000  -0.00000  -0.00785
   Cu     1.85357   1.85334   0.00000   0.00000   0.00000  -0.00851
   Cu     0.00000   1.85334   1.76059  -0.00000   0.00000   0.05699
   Cu     1.85357   0.00000   1.76013  -0.00000   0.00000  -0.05404
   N      0.00000   1.85334   3.69839   0.00000  -0.00000   0.06081
PRIMCOORD 10
      5   1
   Cu     0.00000   0.00000   0.00000  -0.04968   0.00000  -0.00000
   Cu     1.85357   1.85334   0.00000   0.02459  -0.00000  -0.00000
   Cu     0.00000   1.85334   1.76059  -0.04378  -0.00000   0.00000
   Cu     1.85357   0.00000   1.76013   0.06094   0.00000   0.00000
   N      0.00000   1.85334   3.69839   0.03601   0.00000   0.00000
PRIMCOORD 11
      5   1
   Cu     0.00000   0.00000   0.00000  -0.00000  -0.02527  -0.00000
   Cu     1.85357   1.85334   0.00000   0.00000   0.04989  -0.00000
   Cu     0.00000   1.85334   1.76059  -0.00000   0.04369   0.00000
   Cu     1.85357   0.00000   1.76013   0.00000  -0.06028   0.00000
   N      0.00000   1.85334   3.69839   0.00000  -0.03646   0.00000
PRIMCOORD 12
      5   1
   Cu     0.00000   0.00000   0.00000  -0.00000  -0.00000   0.04699
   Cu     1.85357   1.85334   0.00000   0.00000   0.00000   0.04737
   Cu     0.00000   1.85334   1.76059  -0.00000   0.00000  -0.03002
   Cu     1.85357   0.00000   1.76013   0.00000  -0.00000  -0.05569
   N      0.00000   1.85334   3.69839   0.00000  -0.00000  -0.03931
PRIMCOORD 13
      5   1
   Cu     0.00000   0.00000   0.00000   0.00140   0.00000   0.00000
   Cu     1.85357   1.85334   0.00000  -0.02372  -0.00000   0.00000
   Cu     0.00000   1.85334   1.76059   0.00166  -0.00000  -0.00000
   Cu     1.85357   0.00000   1.76013  -0.00075   0.00000  -0.00000
   N      0.00000   1.85334   3.69839   0.09712   0.00000  -0.00000
PRIMCOORD 14
      5   1
   Cu     0.00000   0.00000   0.00000   0.00000  -0.02366  -0.00000
   Cu     1.85357   1.85334   0.00000  -0.00000   0.00135   0.00000
   Cu     0.00000   1.85334   1.76059  -0.00000   0.00163   0.00000
   Cu     1.85357   0.00000   1.76013   0.00000  -0.00073  -0.00000
   N      0.00000   1.85334   3.69839   0.00000   0.09714   0.00000
PRIMCOORD 15
      5   1
   Cu     0.00000   0.00000   0.00000   0.00000  -0.00000   0.00119
   Cu     1.85357   1.85334   0.00000  -0.00000   0.00000   0.00117
   Cu     0.00000   1.85334   1.76059   0.00000   0.00000  -0.02315
   Cu     1.85357   0.00000   1.76013  -0.00000  -0.00000  -0.00065
   N      0.00000   1.85334   3.69839   0.00000   0.00000   0.09727
