--------------------------------------------------------------------------
WARNING: Linux kernel CMA support was requested via the
btl_vader_single_copy_mechanism MCA variable, but CMA support is
not available due to restrictive ptrace settings.

The vader shared memory BTL will fall back on another single-copy
mechanism if one is available. This may result in lower performance.

  Local host: Rijuki
--------------------------------------------------------------------------

     Program PHONON v.6.0 (svn rev. 13079) starts on 26Jun2020 at 13: 2: 9 

     This program is part of the open-source Quantum ESPRESSO suite
     for quantum simulation of materials; please cite
         "P. Giannozzi et al., J. Phys.:Condens. Matter 21 395502 (2009);
          URL http://www.quantum-espresso.org", 
     in publications or presentations arising from this work. More details at
     http://www.quantum-espresso.org/quote

     Parallel version (MPI), running on    10 processors
     R & G space division:  proc/nbgrp/npool/nimage =      10

     Reading data from directory:
     ./tmp/Cu2N.save

   Info: using nr1, nr2, nr3 values from input

   Info: using nr1, nr2, nr3 values from input

     IMPORTANT: XC functional enforced from input :
     Exchange-correlation      =  SLA  PW   PBX  PBC ( 1  4  3  4 0 0)
     Any further DFT definition will be discarded
     Please, verify this is what you really want

               file Cu.pbe-dn-kjpaw_psl.1.0.0.UPF: wavefunction(s)  4S 3D renormalized
               file N.pbe-n-kjpaw_psl.1.0.0.UPF: wavefunction(s)  2S renormalized

     Parallelization info
     --------------------
     sticks:   dense  smooth     PW     G-vecs:    dense   smooth      PW
     Min          47      47     14                  768      768     129
     Max          49      49     16                  770      770     132
     Sum         481     481    145                 7689     7689    1309

     Generating pointlists ...
     new r_m :   0.1969 (alat units)  1.3792 (a.u.) for type    1
     new r_m :   0.1969 (alat units)  1.3792 (a.u.) for type    2

     Check: negative/imaginary core charge=   -0.000075    0.000000

     Calculation of q =    0.0000000   0.0000000   0.0000000

                                                                                

     bravais-lattice index     =            0
     lattice parameter (alat)  =       7.0055  a.u.
     unit-cell volume          =     343.7659 (a.u.)^3
     number of atoms/cell      =            5
     number of atomic types    =            2
     kinetic-energy cut-off    =      30.0000  Ry
     charge density cut-off    =     120.0000  Ry
     convergence threshold     =      1.0E-14
     beta                      =       0.7000
     number of iterations used =            4
     Exchange-correlation      =  SLA  PW   PBX  PBC ( 1  4  3  4 0 0)


     celldm(1)=    7.00550  celldm(2)=    0.00000  celldm(3)=    0.00000
     celldm(4)=    0.00000  celldm(5)=    0.00000  celldm(6)=    0.00000

     crystal axes: (cart. coord. in units of alat)
               a(1) = (  1.0000  0.0000  0.0000 )  
               a(2) = (  0.0000  0.9999  0.0000 )  
               a(3) = (  0.0000  0.0000  1.0000 )  

     reciprocal axes: (cart. coord. in units 2 pi/alat)
               b(1) = (  1.0000  0.0000  0.0000 )  
               b(2) = (  0.0000  1.0001  0.0000 )  
               b(3) = (  0.0000  0.0000  1.0000 )  


     Atoms inside the unit cell: 

     Cartesian axes

     site n.  atom      mass           positions (alat units)
        1     Cu  63.5460   tau(    1) = (    0.00000    0.00000    0.00000  )
        2     Cu  63.5460   tau(    2) = (    0.50000    0.49994    0.00000  )
        3     Cu  63.5460   tau(    3) = (    0.00000    0.49994    0.47492  )
        4     Cu  63.5460   tau(    4) = (    0.50000    0.00000    0.47479  )
        5     N   14.0070   tau(    5) = (    0.00000    0.49994    0.99764  )

     Computing dynamical matrix for 
                    q = (   0.0000000   0.0000000   0.0000000 )

      5 Sym.Ops. (with q -> -q+G )


     G cutoff =  149.1761  (    769 G-vectors)     FFT grid: ( 25, 25, 25)

     number of k points=    16  gaussian smearing, width (Ry)=  0.0200
                       cart. coord. in units 2pi/alat
        k(    1) = (   0.1250000   0.1250155   0.1250000), wk =   0.1250000
        k(    2) = (   0.1250000   0.1250155   0.3750000), wk =   0.1250000
        k(    3) = (   0.1250000   0.3750466   0.1250000), wk =   0.1250000
        k(    4) = (   0.1250000   0.3750466   0.3750000), wk =   0.1250000
        k(    5) = (   0.3750000   0.1250155   0.3750000), wk =   0.1250000
        k(    6) = (   0.3750000   0.3750466   0.3750000), wk =   0.1250000
        k(    7) = (   0.3750000  -0.1250155   0.1250000), wk =   0.1250000
        k(    8) = (   0.3750000  -0.3750466   0.1250000), wk =   0.1250000
        k(    9) = (   0.1250000   0.1250155   0.1250000), wk =   0.1250000
        k(   10) = (   0.1250000   0.1250155   0.3750000), wk =   0.1250000
        k(   11) = (   0.1250000   0.3750466   0.1250000), wk =   0.1250000
        k(   12) = (   0.1250000   0.3750466   0.3750000), wk =   0.1250000
        k(   13) = (   0.3750000   0.1250155   0.3750000), wk =   0.1250000
        k(   14) = (   0.3750000   0.3750466   0.3750000), wk =   0.1250000
        k(   15) = (   0.3750000  -0.1250155   0.1250000), wk =   0.1250000
        k(   16) = (   0.3750000  -0.3750466   0.1250000), wk =   0.1250000

     PseudoPot. # 1 for Cu read from file:
     ../../pseudo/Cu.pbe-dn-kjpaw_psl.1.0.0.UPF
     MD5 check sum: cfffd1f38ee05704b3e17f46f1730a6f
     Pseudo is Projector augmented-wave + core cor, Zval = 11.0
     Generated using "atomic" code by A. Dal Corso  v.6.3
     Shape of augmentation charge: PSQ
     Using radial grid of 1199 points,  6 beta functions with: 
                l(1) =   0
                l(2) =   0
                l(3) =   1
                l(4) =   1
                l(5) =   2
                l(6) =   2
     Q(r) pseudized with 0 coefficients 


     PseudoPot. # 2 for  N read from file:
     ../../pseudo/N.pbe-n-kjpaw_psl.1.0.0.UPF
     MD5 check sum: 14c48229446f9f2d411169a3abcbc3fa
     Pseudo is Projector augmented-wave + core cor, Zval =  5.0
     Generated using "atomic" code by A. Dal Corso  v.6.3
     Shape of augmentation charge: PSQ
     Using radial grid of 1085 points,  4 beta functions with: 
                l(1) =   0
                l(2) =   0
                l(3) =   1
                l(4) =   1
     Q(r) pseudized with 0 coefficients 


     Mode symmetry, C_2v (mm2)  point group:


     Atomic displacements:
     There are  15 irreducible representations

     Representation     1      1 modes -A_1  D_1  S_1  To be done

     Representation     2      1 modes -A_1  D_1  S_1  To be done

     Representation     3      1 modes -A_1  D_1  S_1  To be done

     Representation     4      1 modes -A_1  D_1  S_1  To be done

     Representation     5      1 modes -A_1  D_1  S_1  To be done

     Representation     6      1 modes -B_1  D_3  S_3  To be done

     Representation     7      1 modes -B_1  D_3  S_3  To be done

     Representation     8      1 modes -B_1  D_3  S_3  To be done

     Representation     9      1 modes -B_1  D_3  S_3  To be done

     Representation    10      1 modes -B_1  D_3  S_3  To be done

     Representation    11      1 modes -B_2  D_4  S_4  To be done

     Representation    12      1 modes -B_2  D_4  S_4  To be done

     Representation    13      1 modes -B_2  D_4  S_4  To be done

     Representation    14      1 modes -B_2  D_4  S_4  To be done

     Representation    15      1 modes -B_2  D_4  S_4  To be done



     Alpha used in Ewald sum =   1.1000
     PHONON       :     4.23s CPU         7.77s WALL



     Representation #  1 mode #   1

     Self-consistent Calculation

     Pert. #  1: Fermi energy shift (Ry) =    -8.4816E-04     0.0000E+00

      iter #   1 total cpu time :    19.7 secs   av.it.:   8.1
      thresh= 1.000E-02 alpha_mix =  0.700 |ddv_scf|^2 =  2.832E-05

     Pert. #  1: Fermi energy shift (Ry) =     4.3483E-02     0.0000E+00

      iter #   2 total cpu time :    32.0 secs   av.it.:  13.4
      thresh= 5.322E-04 alpha_mix =  0.700 |ddv_scf|^2 =  6.094E-06

     Pert. #  1: Fermi energy shift (Ry) =    -5.3276E-02     0.0000E+00

      iter #   3 total cpu time :    44.6 secs   av.it.:  13.6
      thresh= 2.469E-04 alpha_mix =  0.700 |ddv_scf|^2 =  2.443E-06

     Pert. #  1: Fermi energy shift (Ry) =     1.7864E-02     0.0000E+00

      iter #   4 total cpu time :    58.5 secs   av.it.:  13.9
      thresh= 1.563E-04 alpha_mix =  0.700 |ddv_scf|^2 =  1.512E-06

     Pert. #  1: Fermi energy shift (Ry) =     2.7423E-02     0.0000E+00

      iter #   5 total cpu time :    71.4 secs   av.it.:  13.4
      thresh= 1.230E-04 alpha_mix =  0.700 |ddv_scf|^2 =  3.304E-08

     Pert. #  1: Fermi energy shift (Ry) =    -5.3404E-03     0.0000E+00

      iter #   6 total cpu time :    85.6 secs   av.it.:  13.8
      thresh= 1.818E-05 alpha_mix =  0.700 |ddv_scf|^2 =  1.239E-08

     Pert. #  1: Fermi energy shift (Ry) =    -6.9345E-03     0.0000E+00

      iter #   7 total cpu time :    99.7 secs   av.it.:  13.4
      thresh= 1.113E-05 alpha_mix =  0.700 |ddv_scf|^2 =  6.076E-09

     Pert. #  1: Fermi energy shift (Ry) =     1.3380E-03     0.0000E+00

      iter #   8 total cpu time :   115.2 secs   av.it.:  13.4
      thresh= 7.795E-06 alpha_mix =  0.700 |ddv_scf|^2 =  2.017E-10

     Pert. #  1: Fermi energy shift (Ry) =     1.5057E-03     0.0000E+00

      iter #   9 total cpu time :   128.6 secs   av.it.:  13.5
      thresh= 1.420E-06 alpha_mix =  0.700 |ddv_scf|^2 =  5.143E-11

     Pert. #  1: Fermi energy shift (Ry) =     9.7388E-04     0.0000E+00

      iter #  10 total cpu time :   142.3 secs   av.it.:  13.4
      thresh= 7.172E-07 alpha_mix =  0.700 |ddv_scf|^2 =  1.606E-11

     Pert. #  1: Fermi energy shift (Ry) =     6.7380E-04     0.0000E+00

      iter #  11 total cpu time :   156.8 secs   av.it.:  14.2
      thresh= 4.007E-07 alpha_mix =  0.700 |ddv_scf|^2 =  1.829E-11

     Pert. #  1: Fermi energy shift (Ry) =     1.1122E-03     0.0000E+00

      iter #  12 total cpu time :   170.9 secs   av.it.:  13.4
      thresh= 4.276E-07 alpha_mix =  0.700 |ddv_scf|^2 =  2.001E-12

     Pert. #  1: Fermi energy shift (Ry) =     9.5242E-04     0.0000E+00

      iter #  13 total cpu time :   184.2 secs   av.it.:  13.5
      thresh= 1.415E-07 alpha_mix =  0.700 |ddv_scf|^2 =  4.272E-13

     Pert. #  1: Fermi energy shift (Ry) =     8.8496E-04     0.0000E+00

      iter #  14 total cpu time :   199.2 secs   av.it.:  13.9
      thresh= 6.536E-08 alpha_mix =  0.700 |ddv_scf|^2 =  2.248E-13

     Pert. #  1: Fermi energy shift (Ry) =     9.2415E-04     0.0000E+00

      iter #  15 total cpu time :   213.4 secs   av.it.:  13.4
      thresh= 4.742E-08 alpha_mix =  0.700 |ddv_scf|^2 =  3.007E-14

     Pert. #  1: Fermi energy shift (Ry) =     9.3607E-04     0.0000E+00

      iter #  16 total cpu time :   229.2 secs   av.it.:  13.4
      thresh= 1.734E-08 alpha_mix =  0.700 |ddv_scf|^2 =  2.220E-15

     End of self-consistent calculation

     Convergence has been achieved 


     Representation #  2 mode #   2

     Self-consistent Calculation

     Pert. #  1: Fermi energy shift (Ry) =     3.4460E-03     0.0000E+00

      iter #   1 total cpu time :   242.9 secs   av.it.:   8.9
      thresh= 1.000E-02 alpha_mix =  0.700 |ddv_scf|^2 =  2.688E-05

     Pert. #  1: Fermi energy shift (Ry) =    -6.9836E-03     0.0000E+00

      iter #   2 total cpu time :   256.7 secs   av.it.:  13.6
      thresh= 5.185E-04 alpha_mix =  0.700 |ddv_scf|^2 =  5.443E-06

     Pert. #  1: Fermi energy shift (Ry) =    -5.6226E-03     0.0000E+00

      iter #   3 total cpu time :   271.3 secs   av.it.:  13.9
      thresh= 2.333E-04 alpha_mix =  0.700 |ddv_scf|^2 =  2.673E-06

     Pert. #  1: Fermi energy shift (Ry) =     2.1737E-02     0.0000E+00

      iter #   4 total cpu time :   285.7 secs   av.it.:  13.9
      thresh= 1.635E-04 alpha_mix =  0.700 |ddv_scf|^2 =  1.363E-06

     Pert. #  1: Fermi energy shift (Ry) =    -1.3666E-02     0.0000E+00

      iter #   5 total cpu time :   299.6 secs   av.it.:  13.4
      thresh= 1.167E-04 alpha_mix =  0.700 |ddv_scf|^2 =  6.821E-08

     Pert. #  1: Fermi energy shift (Ry) =    -2.7363E-03     0.0000E+00

      iter #   6 total cpu time :   313.8 secs   av.it.:  13.5
      thresh= 2.612E-05 alpha_mix =  0.700 |ddv_scf|^2 =  8.360E-09

     Pert. #  1: Fermi energy shift (Ry) =     1.3166E-02     0.0000E+00

      iter #   7 total cpu time :   328.5 secs   av.it.:  14.2
      thresh= 9.143E-06 alpha_mix =  0.700 |ddv_scf|^2 =  7.781E-09

     Pert. #  1: Fermi energy shift (Ry) =     1.0753E-03     0.0000E+00

      iter #   8 total cpu time :   341.7 secs   av.it.:  13.6
      thresh= 8.821E-06 alpha_mix =  0.700 |ddv_scf|^2 =  7.481E-11

     Pert. #  1: Fermi energy shift (Ry) =     2.8184E-04     0.0000E+00

      iter #   9 total cpu time :   355.6 secs   av.it.:  14.4
      thresh= 8.649E-07 alpha_mix =  0.700 |ddv_scf|^2 =  6.176E-11

     Pert. #  1: Fermi energy shift (Ry) =     1.1581E-03     0.0000E+00

      iter #  10 total cpu time :   368.8 secs   av.it.:  13.6
      thresh= 7.859E-07 alpha_mix =  0.700 |ddv_scf|^2 =  2.380E-12

     Pert. #  1: Fermi energy shift (Ry) =     9.4409E-04     0.0000E+00

      iter #  11 total cpu time :   383.0 secs   av.it.:  15.2
      thresh= 1.543E-07 alpha_mix =  0.700 |ddv_scf|^2 =  1.043E-11

     Pert. #  1: Fermi energy shift (Ry) =     1.0051E-03     0.0000E+00

      iter #  12 total cpu time :   397.7 secs   av.it.:  13.9
      thresh= 3.229E-07 alpha_mix =  0.700 |ddv_scf|^2 =  1.343E-12

     Pert. #  1: Fermi energy shift (Ry) =     1.0475E-03     0.0000E+00

      iter #  13 total cpu time :   411.6 secs   av.it.:  13.9
      thresh= 1.159E-07 alpha_mix =  0.700 |ddv_scf|^2 =  1.227E-13

     Pert. #  1: Fermi energy shift (Ry) =     1.0477E-03     0.0000E+00

      iter #  14 total cpu time :   425.4 secs   av.it.:  14.1
      thresh= 3.503E-08 alpha_mix =  0.700 |ddv_scf|^2 =  4.513E-14

     Pert. #  1: Fermi energy shift (Ry) =     1.0475E-03     0.0000E+00

      iter #  15 total cpu time :   439.9 secs   av.it.:  13.6
      thresh= 2.124E-08 alpha_mix =  0.700 |ddv_scf|^2 =  3.938E-15

     End of self-consistent calculation

     Convergence has been achieved 


     Representation #  3 mode #   3

     Self-consistent Calculation

     Pert. #  1: Fermi energy shift (Ry) =    -4.9602E-02     0.0000E+00

      iter #   1 total cpu time :   454.8 secs   av.it.:   8.4
      thresh= 1.000E-02 alpha_mix =  0.700 |ddv_scf|^2 =  2.908E-05

     Pert. #  1: Fermi energy shift (Ry) =     9.9132E-02     0.0000E+00

      iter #   2 total cpu time :   468.2 secs   av.it.:  13.4
      thresh= 5.393E-04 alpha_mix =  0.700 |ddv_scf|^2 =  7.701E-06

     Pert. #  1: Fermi energy shift (Ry) =    -7.2893E-02     0.0000E+00

      iter #   3 total cpu time :   482.9 secs   av.it.:  14.2
      thresh= 2.775E-04 alpha_mix =  0.700 |ddv_scf|^2 =  6.638E-06

     Pert. #  1: Fermi energy shift (Ry) =    -4.3898E-03     0.0000E+00

      iter #   4 total cpu time :   496.8 secs   av.it.:  13.4
      thresh= 2.576E-04 alpha_mix =  0.700 |ddv_scf|^2 =  9.709E-07

     Pert. #  1: Fermi energy shift (Ry) =     2.0749E-02     0.0000E+00

      iter #   5 total cpu time :   510.5 secs   av.it.:  13.5
      thresh= 9.854E-05 alpha_mix =  0.700 |ddv_scf|^2 =  2.057E-07

     Pert. #  1: Fermi energy shift (Ry) =     7.8350E-03     0.0000E+00

      iter #   6 total cpu time :   524.2 secs   av.it.:  13.4
      thresh= 4.535E-05 alpha_mix =  0.700 |ddv_scf|^2 =  2.544E-08

     Pert. #  1: Fermi energy shift (Ry) =     4.3119E-03     0.0000E+00

      iter #   7 total cpu time :   538.0 secs   av.it.:  13.4
      thresh= 1.595E-05 alpha_mix =  0.700 |ddv_scf|^2 =  1.015E-08

     Pert. #  1: Fermi energy shift (Ry) =    -1.2884E-03     0.0000E+00

      iter #   8 total cpu time :   552.1 secs   av.it.:  13.4
      thresh= 1.007E-05 alpha_mix =  0.700 |ddv_scf|^2 =  8.044E-10

     Pert. #  1: Fermi energy shift (Ry) =     5.4516E-03     0.0000E+00

      iter #   9 total cpu time :   565.4 secs   av.it.:  13.5
      thresh= 2.836E-06 alpha_mix =  0.700 |ddv_scf|^2 =  8.673E-11

     Pert. #  1: Fermi energy shift (Ry) =     3.6615E-03     0.0000E+00

      iter #  10 total cpu time :   579.1 secs   av.it.:  14.4
      thresh= 9.313E-07 alpha_mix =  0.700 |ddv_scf|^2 =  1.780E-10

     Pert. #  1: Fermi energy shift (Ry) =     3.6746E-03     0.0000E+00

      iter #  11 total cpu time :   593.0 secs   av.it.:  13.4
      thresh= 1.334E-06 alpha_mix =  0.700 |ddv_scf|^2 =  1.265E-11

     Pert. #  1: Fermi energy shift (Ry) =     3.9139E-03     0.0000E+00

      iter #  12 total cpu time :   607.2 secs   av.it.:  13.6
      thresh= 3.557E-07 alpha_mix =  0.700 |ddv_scf|^2 =  4.037E-12

     Pert. #  1: Fermi energy shift (Ry) =     3.8376E-03     0.0000E+00

      iter #  13 total cpu time :   621.1 secs   av.it.:  13.8
      thresh= 2.009E-07 alpha_mix =  0.700 |ddv_scf|^2 =  5.977E-12

     Pert. #  1: Fermi energy shift (Ry) =     3.8917E-03     0.0000E+00

      iter #  14 total cpu time :   635.8 secs   av.it.:  13.4
      thresh= 2.445E-07 alpha_mix =  0.700 |ddv_scf|^2 =  2.190E-13

     Pert. #  1: Fermi energy shift (Ry) =     3.7680E-03     0.0000E+00

      iter #  15 total cpu time :   650.1 secs   av.it.:  13.7
      thresh= 4.680E-08 alpha_mix =  0.700 |ddv_scf|^2 =  1.401E-13

     Pert. #  1: Fermi energy shift (Ry) =     3.8463E-03     0.0000E+00

      iter #  16 total cpu time :   663.8 secs   av.it.:  13.6
      thresh= 3.743E-08 alpha_mix =  0.700 |ddv_scf|^2 =  2.833E-14

     Pert. #  1: Fermi energy shift (Ry) =     3.8399E-03     0.0000E+00

      iter #  17 total cpu time :   679.3 secs   av.it.:  14.0
      thresh= 1.683E-08 alpha_mix =  0.700 |ddv_scf|^2 =  2.030E-14

     Pert. #  1: Fermi energy shift (Ry) =     3.8337E-03     0.0000E+00

      iter #  18 total cpu time :   694.2 secs   av.it.:  13.4
      thresh= 1.425E-08 alpha_mix =  0.700 |ddv_scf|^2 =  2.179E-15

     End of self-consistent calculation

     Convergence has been achieved 


     Representation #  4 mode #   4

     Self-consistent Calculation

     Pert. #  1: Fermi energy shift (Ry) =     3.4243E-03     0.0000E+00

      iter #   1 total cpu time :   708.0 secs   av.it.:   8.9
      thresh= 1.000E-02 alpha_mix =  0.700 |ddv_scf|^2 =  2.688E-05

     Pert. #  1: Fermi energy shift (Ry) =    -7.0088E-03     0.0000E+00

      iter #   2 total cpu time :   722.0 secs   av.it.:  13.6
      thresh= 5.185E-04 alpha_mix =  0.700 |ddv_scf|^2 =  5.442E-06

     Pert. #  1: Fermi energy shift (Ry) =    -5.5002E-03     0.0000E+00

      iter #   3 total cpu time :   735.5 secs   av.it.:  13.9
      thresh= 2.333E-04 alpha_mix =  0.700 |ddv_scf|^2 =  2.667E-06

     Pert. #  1: Fermi energy shift (Ry) =     2.1729E-02     0.0000E+00

      iter #   4 total cpu time :   749.5 secs   av.it.:  13.9
      thresh= 1.633E-04 alpha_mix =  0.700 |ddv_scf|^2 =  1.365E-06

     Pert. #  1: Fermi energy shift (Ry) =    -1.3654E-02     0.0000E+00

      iter #   5 total cpu time :   763.5 secs   av.it.:  13.4
      thresh= 1.168E-04 alpha_mix =  0.700 |ddv_scf|^2 =  6.805E-08

     Pert. #  1: Fermi energy shift (Ry) =    -2.7018E-03     0.0000E+00

      iter #   6 total cpu time :   777.7 secs   av.it.:  13.5
      thresh= 2.609E-05 alpha_mix =  0.700 |ddv_scf|^2 =  8.354E-09

     Pert. #  1: Fermi energy shift (Ry) =     1.3190E-02     0.0000E+00

      iter #   7 total cpu time :   791.5 secs   av.it.:  14.2
      thresh= 9.140E-06 alpha_mix =  0.700 |ddv_scf|^2 =  7.782E-09

     Pert. #  1: Fermi energy shift (Ry) =     1.1011E-03     0.0000E+00

      iter #   8 total cpu time :   805.7 secs   av.it.:  13.5
      thresh= 8.822E-06 alpha_mix =  0.700 |ddv_scf|^2 =  7.489E-11

     Pert. #  1: Fermi energy shift (Ry) =     3.0693E-04     0.0000E+00

      iter #   9 total cpu time :   821.3 secs   av.it.:  14.4
      thresh= 8.654E-07 alpha_mix =  0.700 |ddv_scf|^2 =  6.170E-11

     Pert. #  1: Fermi energy shift (Ry) =     1.1846E-03     0.0000E+00

      iter #  10 total cpu time :   837.8 secs   av.it.:  13.6
      thresh= 7.855E-07 alpha_mix =  0.700 |ddv_scf|^2 =  2.116E-12

     Pert. #  1: Fermi energy shift (Ry) =     9.6034E-04     0.0000E+00

      iter #  11 total cpu time :   853.2 secs   av.it.:  15.2
      thresh= 1.455E-07 alpha_mix =  0.700 |ddv_scf|^2 =  8.435E-12

     Pert. #  1: Fermi energy shift (Ry) =     1.0377E-03     0.0000E+00

      iter #  12 total cpu time :   867.5 secs   av.it.:  13.8
      thresh= 2.904E-07 alpha_mix =  0.700 |ddv_scf|^2 =  1.197E-12

     Pert. #  1: Fermi energy shift (Ry) =     1.0734E-03     0.0000E+00

      iter #  13 total cpu time :   881.0 secs   av.it.:  13.9
      thresh= 1.094E-07 alpha_mix =  0.700 |ddv_scf|^2 =  1.283E-13

     Pert. #  1: Fermi energy shift (Ry) =     1.0734E-03     0.0000E+00

      iter #  14 total cpu time :   895.7 secs   av.it.:  14.1
      thresh= 3.582E-08 alpha_mix =  0.700 |ddv_scf|^2 =  5.004E-14

     Pert. #  1: Fermi energy shift (Ry) =     1.0733E-03     0.0000E+00

      iter #  15 total cpu time :   910.9 secs   av.it.:  13.8
      thresh= 2.237E-08 alpha_mix =  0.700 |ddv_scf|^2 =  3.864E-15

     End of self-consistent calculation

     Convergence has been achieved 


     Representation #  5 mode #   5

     Self-consistent Calculation

     Pert. #  1: Fermi energy shift (Ry) =     5.4128E-03     0.0000E+00

      iter #   1 total cpu time :   923.8 secs   av.it.:   7.4
      thresh= 1.000E-02 alpha_mix =  0.700 |ddv_scf|^2 =  5.721E-06

     Pert. #  1: Fermi energy shift (Ry) =    -4.2571E-02     0.0000E+00

      iter #   2 total cpu time :   938.3 secs   av.it.:  13.5
      thresh= 2.392E-04 alpha_mix =  0.700 |ddv_scf|^2 =  1.944E-06

     Pert. #  1: Fermi energy shift (Ry) =     2.9173E-02     0.0000E+00

      iter #   3 total cpu time :   952.4 secs   av.it.:  13.9
      thresh= 1.394E-04 alpha_mix =  0.700 |ddv_scf|^2 =  2.413E-06

     Pert. #  1: Fermi energy shift (Ry) =     3.8711E-03     0.0000E+00

      iter #   4 total cpu time :   965.8 secs   av.it.:  13.1
      thresh= 1.553E-04 alpha_mix =  0.700 |ddv_scf|^2 =  2.560E-08

     Pert. #  1: Fermi energy shift (Ry) =    -2.3584E-02     0.0000E+00

      iter #   5 total cpu time :   979.6 secs   av.it.:  14.1
      thresh= 1.600E-05 alpha_mix =  0.700 |ddv_scf|^2 =  1.178E-08

     Pert. #  1: Fermi energy shift (Ry) =    -6.6047E-03     0.0000E+00

      iter #   6 total cpu time :   992.7 secs   av.it.:  13.5
      thresh= 1.085E-05 alpha_mix =  0.700 |ddv_scf|^2 =  6.878E-10

     Pert. #  1: Fermi energy shift (Ry) =    -5.9610E-03     0.0000E+00

      iter #   7 total cpu time :  1006.6 secs   av.it.:  13.5
      thresh= 2.623E-06 alpha_mix =  0.700 |ddv_scf|^2 =  9.852E-10

     Pert. #  1: Fermi energy shift (Ry) =    -6.3510E-03     0.0000E+00

      iter #   8 total cpu time :  1021.8 secs   av.it.:  12.5
      thresh= 3.139E-06 alpha_mix =  0.700 |ddv_scf|^2 =  2.315E-11

     Pert. #  1: Fermi energy shift (Ry) =    -7.2134E-03     0.0000E+00

      iter #   9 total cpu time :  1037.2 secs   av.it.:  14.0
      thresh= 4.811E-07 alpha_mix =  0.700 |ddv_scf|^2 =  8.798E-12

     Pert. #  1: Fermi energy shift (Ry) =    -6.8437E-03     0.0000E+00

      iter #  10 total cpu time :  1053.9 secs   av.it.:  14.4
      thresh= 2.966E-07 alpha_mix =  0.700 |ddv_scf|^2 =  1.891E-11

     Pert. #  1: Fermi energy shift (Ry) =    -6.6614E-03     0.0000E+00

      iter #  11 total cpu time :  1069.6 secs   av.it.:  13.4
      thresh= 4.348E-07 alpha_mix =  0.700 |ddv_scf|^2 =  2.151E-12

     Pert. #  1: Fermi energy shift (Ry) =    -7.0102E-03     0.0000E+00

      iter #  12 total cpu time :  1084.1 secs   av.it.:  14.1
      thresh= 1.467E-07 alpha_mix =  0.700 |ddv_scf|^2 =  1.603E-12

     Pert. #  1: Fermi energy shift (Ry) =    -6.8699E-03     0.0000E+00

      iter #  13 total cpu time :  1098.2 secs   av.it.:  13.4
      thresh= 1.266E-07 alpha_mix =  0.700 |ddv_scf|^2 =  3.595E-13

     Pert. #  1: Fermi energy shift (Ry) =    -6.8734E-03     0.0000E+00

      iter #  14 total cpu time :  1112.1 secs   av.it.:  13.1
      thresh= 5.995E-08 alpha_mix =  0.700 |ddv_scf|^2 =  4.070E-14

     Pert. #  1: Fermi energy shift (Ry) =    -6.8483E-03     0.0000E+00

      iter #  15 total cpu time :  1125.4 secs   av.it.:  13.4
      thresh= 2.018E-08 alpha_mix =  0.700 |ddv_scf|^2 =  1.699E-14

     Pert. #  1: Fermi energy shift (Ry) =    -6.8651E-03     0.0000E+00

      iter #  16 total cpu time :  1139.3 secs   av.it.:  13.8
      thresh= 1.303E-08 alpha_mix =  0.700 |ddv_scf|^2 =  5.371E-15

     End of self-consistent calculation

     Convergence has been achieved 


     Representation #  6 mode #   6

     Self-consistent Calculation

     Pert. #  1: Fermi energy shift (Ry) =     0.0000E+00     0.0000E+00

      iter #   1 total cpu time :  1153.5 secs   av.it.:   8.8
      thresh= 1.000E-02 alpha_mix =  0.700 |ddv_scf|^2 =  2.689E-05

     Pert. #  1: Fermi energy shift (Ry) =     0.0000E+00     0.0000E+00

      iter #   2 total cpu time :  1166.9 secs   av.it.:  13.4
      thresh= 5.186E-04 alpha_mix =  0.700 |ddv_scf|^2 =  4.924E-06

     Pert. #  1: Fermi energy shift (Ry) =     0.0000E+00     0.0000E+00

      iter #   3 total cpu time :  1180.4 secs   av.it.:  13.1
      thresh= 2.219E-04 alpha_mix =  0.700 |ddv_scf|^2 =  8.976E-08

     Pert. #  1: Fermi energy shift (Ry) =     0.0000E+00     0.0000E+00

      iter #   4 total cpu time :  1194.2 secs   av.it.:  12.9
      thresh= 2.996E-05 alpha_mix =  0.700 |ddv_scf|^2 =  8.164E-10

     Pert. #  1: Fermi energy shift (Ry) =     0.0000E+00     0.0000E+00

      iter #   5 total cpu time :  1208.8 secs   av.it.:  13.5
      thresh= 2.857E-06 alpha_mix =  0.700 |ddv_scf|^2 =  1.453E-11

     Pert. #  1: Fermi energy shift (Ry) =     0.0000E+00     0.0000E+00

      iter #   6 total cpu time :  1223.2 secs   av.it.:  12.1
      thresh= 3.811E-07 alpha_mix =  0.700 |ddv_scf|^2 =  2.497E-13

     Pert. #  1: Fermi energy shift (Ry) =     0.0000E+00     0.0000E+00

      iter #   7 total cpu time :  1237.4 secs   av.it.:  13.0
      thresh= 4.997E-08 alpha_mix =  0.700 |ddv_scf|^2 =  3.141E-15

     End of self-consistent calculation

     Convergence has been achieved 


     Representation #  7 mode #   7

     Self-consistent Calculation

     Pert. #  1: Fermi energy shift (Ry) =     0.0000E+00     0.0000E+00

      iter #   1 total cpu time :  1252.0 secs   av.it.:   8.2
      thresh= 1.000E-02 alpha_mix =  0.700 |ddv_scf|^2 =  2.868E-05

     Pert. #  1: Fermi energy shift (Ry) =     0.0000E+00     0.0000E+00

      iter #   2 total cpu time :  1266.4 secs   av.it.:  13.0
      thresh= 5.355E-04 alpha_mix =  0.700 |ddv_scf|^2 =  5.371E-06

     Pert. #  1: Fermi energy shift (Ry) =     0.0000E+00     0.0000E+00

      iter #   3 total cpu time :  1280.4 secs   av.it.:  12.9
      thresh= 2.318E-04 alpha_mix =  0.700 |ddv_scf|^2 =  8.611E-08

     Pert. #  1: Fermi energy shift (Ry) =     0.0000E+00     0.0000E+00

      iter #   4 total cpu time :  1294.8 secs   av.it.:  13.1
      thresh= 2.934E-05 alpha_mix =  0.700 |ddv_scf|^2 =  1.000E-09

     Pert. #  1: Fermi energy shift (Ry) =     0.0000E+00     0.0000E+00

      iter #   5 total cpu time :  1309.5 secs   av.it.:  13.0
      thresh= 3.163E-06 alpha_mix =  0.700 |ddv_scf|^2 =  2.655E-11

     Pert. #  1: Fermi energy shift (Ry) =     0.0000E+00     0.0000E+00

      iter #   6 total cpu time :  1323.5 secs   av.it.:  12.6
      thresh= 5.153E-07 alpha_mix =  0.700 |ddv_scf|^2 =  1.437E-13

     Pert. #  1: Fermi energy shift (Ry) =     0.0000E+00     0.0000E+00

      iter #   7 total cpu time :  1336.9 secs   av.it.:  13.1
      thresh= 3.791E-08 alpha_mix =  0.700 |ddv_scf|^2 =  4.802E-15

     End of self-consistent calculation

     Convergence has been achieved 


     Representation #  8 mode #   8

     Self-consistent Calculation

     Pert. #  1: Fermi energy shift (Ry) =     0.0000E+00     0.0000E+00

      iter #   1 total cpu time :  1350.4 secs   av.it.:   8.2
      thresh= 1.000E-02 alpha_mix =  0.700 |ddv_scf|^2 =  2.831E-05

     Pert. #  1: Fermi energy shift (Ry) =     0.0000E+00     0.0000E+00

      iter #   2 total cpu time :  1364.1 secs   av.it.:  13.2
      thresh= 5.321E-04 alpha_mix =  0.700 |ddv_scf|^2 =  5.585E-06

     Pert. #  1: Fermi energy shift (Ry) =     0.0000E+00     0.0000E+00

      iter #   3 total cpu time :  1377.1 secs   av.it.:  13.1
      thresh= 2.363E-04 alpha_mix =  0.700 |ddv_scf|^2 =  7.968E-08

     Pert. #  1: Fermi energy shift (Ry) =     0.0000E+00     0.0000E+00

      iter #   4 total cpu time :  1391.1 secs   av.it.:  12.9
      thresh= 2.823E-05 alpha_mix =  0.700 |ddv_scf|^2 =  1.042E-09

     Pert. #  1: Fermi energy shift (Ry) =     0.0000E+00     0.0000E+00

      iter #   5 total cpu time :  1406.4 secs   av.it.:  13.4
      thresh= 3.228E-06 alpha_mix =  0.700 |ddv_scf|^2 =  2.619E-11

     Pert. #  1: Fermi energy shift (Ry) =     0.0000E+00     0.0000E+00

      iter #   6 total cpu time :  1420.8 secs   av.it.:  12.5
      thresh= 5.118E-07 alpha_mix =  0.700 |ddv_scf|^2 =  3.791E-13

     Pert. #  1: Fermi energy shift (Ry) =     0.0000E+00     0.0000E+00

      iter #   7 total cpu time :  1433.6 secs   av.it.:  12.9
      thresh= 6.157E-08 alpha_mix =  0.700 |ddv_scf|^2 =  4.934E-15

     End of self-consistent calculation

     Convergence has been achieved 


     Representation #  9 mode #   9

     Self-consistent Calculation

     Pert. #  1: Fermi energy shift (Ry) =     0.0000E+00     0.0000E+00

      iter #   1 total cpu time :  1446.1 secs   av.it.:   7.5
      thresh= 1.000E-02 alpha_mix =  0.700 |ddv_scf|^2 =  5.687E-06

     Pert. #  1: Fermi energy shift (Ry) =     0.0000E+00     0.0000E+00

      iter #   2 total cpu time :  1459.7 secs   av.it.:  13.6
      thresh= 2.385E-04 alpha_mix =  0.700 |ddv_scf|^2 =  1.333E-06

     Pert. #  1: Fermi energy shift (Ry) =     0.0000E+00     0.0000E+00

      iter #   3 total cpu time :  1473.4 secs   av.it.:  12.9
      thresh= 1.155E-04 alpha_mix =  0.700 |ddv_scf|^2 =  4.910E-09

     Pert. #  1: Fermi energy shift (Ry) =     0.0000E+00     0.0000E+00

      iter #   4 total cpu time :  1487.6 secs   av.it.:  13.6
      thresh= 7.007E-06 alpha_mix =  0.700 |ddv_scf|^2 =  1.012E-10

     Pert. #  1: Fermi energy shift (Ry) =     0.0000E+00     0.0000E+00

      iter #   5 total cpu time :  1503.1 secs   av.it.:  12.9
      thresh= 1.006E-06 alpha_mix =  0.700 |ddv_scf|^2 =  1.994E-12

     Pert. #  1: Fermi energy shift (Ry) =     0.0000E+00     0.0000E+00

      iter #   6 total cpu time :  1519.6 secs   av.it.:  12.4
      thresh= 1.412E-07 alpha_mix =  0.700 |ddv_scf|^2 =  4.094E-14

     Pert. #  1: Fermi energy shift (Ry) =     0.0000E+00     0.0000E+00

      iter #   7 total cpu time :  1536.3 secs   av.it.:  11.6
      thresh= 2.023E-08 alpha_mix =  0.700 |ddv_scf|^2 =  1.548E-16

     End of self-consistent calculation

     Convergence has been achieved 


     Representation # 10 mode #  10

     Self-consistent Calculation

     Pert. #  1: Fermi energy shift (Ry) =     0.0000E+00     0.0000E+00

      iter #   1 total cpu time :  1550.4 secs   av.it.:   8.8
      thresh= 1.000E-02 alpha_mix =  0.700 |ddv_scf|^2 =  2.689E-05

     Pert. #  1: Fermi energy shift (Ry) =     0.0000E+00     0.0000E+00

      iter #   2 total cpu time :  1564.2 secs   av.it.:  13.2
      thresh= 5.186E-04 alpha_mix =  0.700 |ddv_scf|^2 =  4.927E-06

     Pert. #  1: Fermi energy shift (Ry) =     0.0000E+00     0.0000E+00

      iter #   3 total cpu time :  1576.5 secs   av.it.:  13.1
      thresh= 2.220E-04 alpha_mix =  0.700 |ddv_scf|^2 =  8.966E-08

     Pert. #  1: Fermi energy shift (Ry) =     0.0000E+00     0.0000E+00

      iter #   4 total cpu time :  1590.9 secs   av.it.:  12.9
      thresh= 2.994E-05 alpha_mix =  0.700 |ddv_scf|^2 =  8.229E-10

     Pert. #  1: Fermi energy shift (Ry) =     0.0000E+00     0.0000E+00

      iter #   5 total cpu time :  1605.1 secs   av.it.:  13.4
      thresh= 2.869E-06 alpha_mix =  0.700 |ddv_scf|^2 =  1.460E-11

     Pert. #  1: Fermi energy shift (Ry) =     0.0000E+00     0.0000E+00

      iter #   6 total cpu time :  1618.7 secs   av.it.:  12.1
      thresh= 3.821E-07 alpha_mix =  0.700 |ddv_scf|^2 =  2.277E-13

     Pert. #  1: Fermi energy shift (Ry) =     0.0000E+00     0.0000E+00

      iter #   7 total cpu time :  1632.3 secs   av.it.:  13.1
      thresh= 4.772E-08 alpha_mix =  0.700 |ddv_scf|^2 =  3.049E-15

     End of self-consistent calculation

     Convergence has been achieved 


     Representation # 11 mode #  11

     Self-consistent Calculation

     Pert. #  1: Fermi energy shift (Ry) =     0.0000E+00     0.0000E+00

      iter #   1 total cpu time :  1646.4 secs   av.it.:   8.8
      thresh= 1.000E-02 alpha_mix =  0.700 |ddv_scf|^2 =  2.687E-05

     Pert. #  1: Fermi energy shift (Ry) =     0.0000E+00     0.0000E+00

      iter #   2 total cpu time :  1661.2 secs   av.it.:  13.4
      thresh= 5.184E-04 alpha_mix =  0.700 |ddv_scf|^2 =  4.916E-06

     Pert. #  1: Fermi energy shift (Ry) =     0.0000E+00     0.0000E+00

      iter #   3 total cpu time :  1674.3 secs   av.it.:  13.1
      thresh= 2.217E-04 alpha_mix =  0.700 |ddv_scf|^2 =  8.958E-08

     Pert. #  1: Fermi energy shift (Ry) =     0.0000E+00     0.0000E+00

      iter #   4 total cpu time :  1687.5 secs   av.it.:  12.9
      thresh= 2.993E-05 alpha_mix =  0.700 |ddv_scf|^2 =  8.083E-10

     Pert. #  1: Fermi energy shift (Ry) =     0.0000E+00     0.0000E+00

      iter #   5 total cpu time :  1701.0 secs   av.it.:  13.5
      thresh= 2.843E-06 alpha_mix =  0.700 |ddv_scf|^2 =  1.431E-11

     Pert. #  1: Fermi energy shift (Ry) =     0.0000E+00     0.0000E+00

      iter #   6 total cpu time :  1716.2 secs   av.it.:  12.1
      thresh= 3.783E-07 alpha_mix =  0.700 |ddv_scf|^2 =  2.492E-13

     Pert. #  1: Fermi energy shift (Ry) =     0.0000E+00     0.0000E+00

      iter #   7 total cpu time :  1731.1 secs   av.it.:  13.1
      thresh= 4.992E-08 alpha_mix =  0.700 |ddv_scf|^2 =  3.099E-15

     End of self-consistent calculation

     Convergence has been achieved 


     Representation # 12 mode #  12

     Self-consistent Calculation

     Pert. #  1: Fermi energy shift (Ry) =     0.0000E+00     0.0000E+00

      iter #   1 total cpu time :  1747.3 secs   av.it.:   8.8
      thresh= 1.000E-02 alpha_mix =  0.700 |ddv_scf|^2 =  2.688E-05

     Pert. #  1: Fermi energy shift (Ry) =     0.0000E+00     0.0000E+00

      iter #   2 total cpu time :  1761.4 secs   av.it.:  13.2
      thresh= 5.184E-04 alpha_mix =  0.700 |ddv_scf|^2 =  4.917E-06

     Pert. #  1: Fermi energy shift (Ry) =     0.0000E+00     0.0000E+00

      iter #   3 total cpu time :  1776.7 secs   av.it.:  13.1
      thresh= 2.218E-04 alpha_mix =  0.700 |ddv_scf|^2 =  8.950E-08

     Pert. #  1: Fermi energy shift (Ry) =     0.0000E+00     0.0000E+00

      iter #   4 total cpu time :  1792.7 secs   av.it.:  12.9
      thresh= 2.992E-05 alpha_mix =  0.700 |ddv_scf|^2 =  8.151E-10

     Pert. #  1: Fermi energy shift (Ry) =     0.0000E+00     0.0000E+00

      iter #   5 total cpu time :  1808.1 secs   av.it.:  13.4
      thresh= 2.855E-06 alpha_mix =  0.700 |ddv_scf|^2 =  1.441E-11

     Pert. #  1: Fermi energy shift (Ry) =     0.0000E+00     0.0000E+00

      iter #   6 total cpu time :  1823.0 secs   av.it.:  12.1
      thresh= 3.797E-07 alpha_mix =  0.700 |ddv_scf|^2 =  2.255E-13

     Pert. #  1: Fermi energy shift (Ry) =     0.0000E+00     0.0000E+00

      iter #   7 total cpu time :  1836.6 secs   av.it.:  13.1
      thresh= 4.749E-08 alpha_mix =  0.700 |ddv_scf|^2 =  2.999E-15

     End of self-consistent calculation

     Convergence has been achieved 


     Representation # 13 mode #  13

     Self-consistent Calculation

     Pert. #  1: Fermi energy shift (Ry) =     0.0000E+00     0.0000E+00

      iter #   1 total cpu time :  1849.8 secs   av.it.:   8.2
      thresh= 1.000E-02 alpha_mix =  0.700 |ddv_scf|^2 =  2.830E-05

     Pert. #  1: Fermi energy shift (Ry) =     0.0000E+00     0.0000E+00

      iter #   2 total cpu time :  1864.0 secs   av.it.:  13.2
      thresh= 5.319E-04 alpha_mix =  0.700 |ddv_scf|^2 =  5.578E-06

     Pert. #  1: Fermi energy shift (Ry) =     0.0000E+00     0.0000E+00

      iter #   3 total cpu time :  1877.1 secs   av.it.:  13.1
      thresh= 2.362E-04 alpha_mix =  0.700 |ddv_scf|^2 =  7.966E-08

     Pert. #  1: Fermi energy shift (Ry) =     0.0000E+00     0.0000E+00

      iter #   4 total cpu time :  1890.8 secs   av.it.:  12.9
      thresh= 2.822E-05 alpha_mix =  0.700 |ddv_scf|^2 =  1.044E-09

     Pert. #  1: Fermi energy shift (Ry) =     0.0000E+00     0.0000E+00

      iter #   5 total cpu time :  1904.1 secs   av.it.:  13.4
      thresh= 3.231E-06 alpha_mix =  0.700 |ddv_scf|^2 =  2.629E-11

     Pert. #  1: Fermi energy shift (Ry) =     0.0000E+00     0.0000E+00

      iter #   6 total cpu time :  1917.9 secs   av.it.:  12.4
      thresh= 5.128E-07 alpha_mix =  0.700 |ddv_scf|^2 =  3.794E-13

     Pert. #  1: Fermi energy shift (Ry) =     0.0000E+00     0.0000E+00

      iter #   7 total cpu time :  1932.8 secs   av.it.:  12.9
      thresh= 6.160E-08 alpha_mix =  0.700 |ddv_scf|^2 =  4.958E-15

     End of self-consistent calculation

     Convergence has been achieved 


     Representation # 14 mode #  14

     Self-consistent Calculation

     Pert. #  1: Fermi energy shift (Ry) =     0.0000E+00     0.0000E+00

      iter #   1 total cpu time :  1946.7 secs   av.it.:   7.5
      thresh= 1.000E-02 alpha_mix =  0.700 |ddv_scf|^2 =  5.684E-06

     Pert. #  1: Fermi energy shift (Ry) =     0.0000E+00     0.0000E+00

      iter #   2 total cpu time :  1960.2 secs   av.it.:  13.6
      thresh= 2.384E-04 alpha_mix =  0.700 |ddv_scf|^2 =  1.331E-06

     Pert. #  1: Fermi energy shift (Ry) =     0.0000E+00     0.0000E+00

      iter #   3 total cpu time :  1974.2 secs   av.it.:  12.9
      thresh= 1.154E-04 alpha_mix =  0.700 |ddv_scf|^2 =  4.912E-09

     Pert. #  1: Fermi energy shift (Ry) =     0.0000E+00     0.0000E+00

      iter #   4 total cpu time :  1987.7 secs   av.it.:  13.6
      thresh= 7.009E-06 alpha_mix =  0.700 |ddv_scf|^2 =  1.009E-10

     Pert. #  1: Fermi energy shift (Ry) =     0.0000E+00     0.0000E+00

      iter #   5 total cpu time :  2000.8 secs   av.it.:  12.9
      thresh= 1.005E-06 alpha_mix =  0.700 |ddv_scf|^2 =  1.963E-12

     Pert. #  1: Fermi energy shift (Ry) =     0.0000E+00     0.0000E+00

      iter #   6 total cpu time :  2013.9 secs   av.it.:  12.4
      thresh= 1.401E-07 alpha_mix =  0.700 |ddv_scf|^2 =  4.065E-14

     Pert. #  1: Fermi energy shift (Ry) =     0.0000E+00     0.0000E+00

      iter #   7 total cpu time :  2026.9 secs   av.it.:  11.6
      thresh= 2.016E-08 alpha_mix =  0.700 |ddv_scf|^2 =  1.549E-16

     End of self-consistent calculation

     Convergence has been achieved 


     Representation # 15 mode #  15

     Self-consistent Calculation

     Pert. #  1: Fermi energy shift (Ry) =     0.0000E+00     0.0000E+00

      iter #   1 total cpu time :  2040.7 secs   av.it.:   8.2
      thresh= 1.000E-02 alpha_mix =  0.700 |ddv_scf|^2 =  2.867E-05

     Pert. #  1: Fermi energy shift (Ry) =     0.0000E+00     0.0000E+00

      iter #   2 total cpu time :  2055.6 secs   av.it.:  12.9
      thresh= 5.355E-04 alpha_mix =  0.700 |ddv_scf|^2 =  5.365E-06

     Pert. #  1: Fermi energy shift (Ry) =     0.0000E+00     0.0000E+00

      iter #   3 total cpu time :  2069.5 secs   av.it.:  12.9
      thresh= 2.316E-04 alpha_mix =  0.700 |ddv_scf|^2 =  8.622E-08

     Pert. #  1: Fermi energy shift (Ry) =     0.0000E+00     0.0000E+00

      iter #   4 total cpu time :  2082.8 secs   av.it.:  13.1
      thresh= 2.936E-05 alpha_mix =  0.700 |ddv_scf|^2 =  1.014E-09

     Pert. #  1: Fermi energy shift (Ry) =     0.0000E+00     0.0000E+00

      iter #   5 total cpu time :  2096.7 secs   av.it.:  13.0
      thresh= 3.184E-06 alpha_mix =  0.700 |ddv_scf|^2 =  2.742E-11

     Pert. #  1: Fermi energy shift (Ry) =     0.0000E+00     0.0000E+00

      iter #   6 total cpu time :  2110.2 secs   av.it.:  12.8
      thresh= 5.237E-07 alpha_mix =  0.700 |ddv_scf|^2 =  1.456E-13

     Pert. #  1: Fermi energy shift (Ry) =     0.0000E+00     0.0000E+00

      iter #   7 total cpu time :  2123.8 secs   av.it.:  13.1
      thresh= 3.816E-08 alpha_mix =  0.700 |ddv_scf|^2 =  4.994E-15

     End of self-consistent calculation

     Convergence has been achieved 

     Number of q in the star =    1
     List of q in the star:
          1   0.000000000   0.000000000   0.000000000

     Diagonalizing the dynamical matrix

     q = (    0.000000000   0.000000000   0.000000000 ) 

 **************************************************************************
     freq (    1) =      -0.954717 [THz] =     -31.845922 [cm-1]
     freq (    2) =      -0.904358 [THz] =     -30.166147 [cm-1]
     freq (    3) =       0.934510 [THz] =      31.171883 [cm-1]
     freq (    4) =       2.961675 [THz] =      98.790855 [cm-1]
     freq (    5) =       3.005405 [THz] =     100.249534 [cm-1]
     freq (    6) =       3.145528 [THz] =     104.923513 [cm-1]
     freq (    7) =       4.323726 [THz] =     144.223973 [cm-1]
     freq (    8) =       4.512813 [THz] =     150.531229 [cm-1]
     freq (    9) =       4.734887 [THz] =     157.938830 [cm-1]
     freq (   10) =       5.635035 [THz] =     187.964547 [cm-1]
     freq (   11) =       5.687910 [THz] =     189.728239 [cm-1]
     freq (   12) =       5.741050 [THz] =     191.500804 [cm-1]
     freq (   13) =      21.612372 [THz] =     720.911141 [cm-1]
     freq (   14) =      21.626144 [THz] =     721.370527 [cm-1]
     freq (   15) =      23.090021 [THz] =     770.200202 [cm-1]
 **************************************************************************

     Mode symmetry, C_2v (mm2)  point group:

     freq (  1 -  1) =        -31.8  [cm-1]   --> B_2  D_4  S_4   I+R
     freq (  2 -  2) =        -30.2  [cm-1]   --> A_1  D_1  S_1   I+R
     freq (  3 -  3) =         31.2  [cm-1]   --> B_1  D_3  S_3   I+R
     freq (  4 -  4) =         98.8  [cm-1]   --> B_2  D_4  S_4   I+R
     freq (  5 -  5) =        100.2  [cm-1]   --> B_1  D_3  S_3   I+R
     freq (  6 -  6) =        104.9  [cm-1]   --> A_1  D_1  S_1   I+R
     freq (  7 -  7) =        144.2  [cm-1]   --> B_2  D_4  S_4   I+R
     freq (  8 -  8) =        150.5  [cm-1]   --> A_1  D_1  S_1   I+R
     freq (  9 -  9) =        157.9  [cm-1]   --> B_1  D_3  S_3   I+R
     freq ( 10 - 10) =        188.0  [cm-1]   --> B_2  D_4  S_4   I+R
     freq ( 11 - 11) =        189.7  [cm-1]   --> B_1  D_3  S_3   I+R
     freq ( 12 - 12) =        191.5  [cm-1]   --> A_1  D_1  S_1   I+R
     freq ( 13 - 13) =        720.9  [cm-1]   --> B_2  D_4  S_4   I+R
     freq ( 14 - 14) =        721.4  [cm-1]   --> B_1  D_3  S_3   I+R
     freq ( 15 - 15) =        770.2  [cm-1]   --> A_1  D_1  S_1   I+R

     PHONON       : 21m22.28s CPU    35m24.13s WALL

     INITIALIZATION: 
     phq_setup    :      0.02s CPU      0.06s WALL (       1 calls)
     phq_init     :      2.44s CPU      4.59s WALL (       1 calls)

     phq_init     :      2.44s CPU      4.59s WALL (       1 calls)
     set_drhoc    :      0.12s CPU      0.14s WALL (       3 calls)
     init_vloc    :      0.02s CPU      0.01s WALL (       1 calls)
     init_us_1    :      0.08s CPU      0.12s WALL (       1 calls)
     newd         :      0.02s CPU      0.02s WALL (       1 calls)
     dvanqq       :      0.28s CPU      0.40s WALL (       1 calls)
     drho         :      1.61s CPU      3.08s WALL (       1 calls)

     DYNAMICAL MATRIX:
     dynmat0      :      0.36s CPU      0.81s WALL (       1 calls)
     phqscf       :   1278.05s CPU   2116.31s WALL (       1 calls)
     dynmatrix    :      0.00s CPU      0.02s WALL (       1 calls)

     phqscf       :   1278.05s CPU   2116.31s WALL (       1 calls)
     solve_linter :   1276.25s CPU   2112.17s WALL (      15 calls)
     drhodv       :      1.72s CPU      3.46s WALL (      15 calls)

     dynmat0      :      0.36s CPU      0.81s WALL (       1 calls)
     dynmat_us    :      0.27s CPU      0.60s WALL (       1 calls)
     d2ionq       :      0.00s CPU      0.02s WALL (       1 calls)
     dynmatcc     :      0.09s CPU      0.17s WALL (       1 calls)

     dynmat_us    :      0.27s CPU      0.60s WALL (       1 calls)
     addusdynmat  :      0.00s CPU      0.00s WALL (       1 calls)

     phqscf       :   1278.05s CPU   2116.31s WALL (       1 calls)
     solve_linter :   1276.25s CPU   2112.17s WALL (      15 calls)

     solve_linter :   1276.25s CPU   2112.17s WALL (      15 calls)
     dvqpsi_us    :      5.00s CPU      7.29s WALL (     240 calls)
     ortho        :     10.61s CPU     22.32s WALL (    2400 calls)
     cgsolve      :    351.47s CPU    761.02s WALL (    2400 calls)
     incdrhoscf   :     11.36s CPU     27.34s WALL (    2400 calls)
     addusddens   :      3.28s CPU      4.98s WALL (     165 calls)
     vpsifft      :      8.64s CPU     20.99s WALL (    2160 calls)
     dv_of_drho   :      0.70s CPU      1.39s WALL (     150 calls)
     mix_pot      :      0.14s CPU      3.45s WALL (     150 calls)
     ef_shift     :      0.09s CPU      0.24s WALL (     165 calls)
     localdos     :      1.28s CPU      2.65s WALL (      15 calls)
     psymdvscf    :      2.20s CPU      2.93s WALL (     150 calls)
     newdq        :      3.20s CPU      5.44s WALL (     150 calls)
     adddvscf     :      3.20s CPU      3.81s WALL (    2160 calls)
     drhodvus     :      0.02s CPU      0.05s WALL (      15 calls)

     dvqpsi_us    :      5.00s CPU      7.29s WALL (     240 calls)
     dvqpsi_us_on :      3.70s CPU      3.73s WALL (     240 calls)

     cgsolve      :    351.47s CPU    761.02s WALL (    2400 calls)
     ch_psi       :    336.42s CPU    702.60s WALL (   44196 calls)

     ch_psi       :    336.42s CPU    702.60s WALL (   44196 calls)
     last         :    110.89s CPU    243.60s WALL (   44196 calls)

     add_vuspsi   :     33.16s CPU     34.40s WALL (   44196 calls)

     incdrhoscf   :     11.36s CPU     27.34s WALL (    2400 calls)
     addusdbec    :      3.80s CPU      7.11s WALL (    2640 calls)

     drhodvus     :      0.02s CPU      0.05s WALL (      15 calls)

      General routines
     calbec       :     94.30s CPU    218.05s WALL (   94792 calls)
     fft          :      1.02s CPU      4.43s WALL (    5085 calls)
     ffts         :      0.39s CPU      1.39s WALL (    6540 calls)
     fftw         :    122.97s CPU    314.27s WALL ( 1869822 calls)
     davcio       :      0.08s CPU      0.94s WALL (   12288 calls)
     write_rec    :      0.38s CPU      5.29s WALL (     165 calls)


     PHONON       : 21m22.28s CPU    35m24.13s WALL


   This run was terminated on:  13:37:33  26Jun2020            

=------------------------------------------------------------------------------=
   JOB DONE.
=------------------------------------------------------------------------------=
